! TOUCHSTONE file generated by CST MICROWAVE STUDIO
! Date and time: Sat Oct 24 10:43:11 2020
! Project name: Scenario_1_Planar_Body_Tissue_Center.cst
! Parameters = {hfat=3; hmuscle=50; hskin=1.5; hgap=25; Wtissue=700; Ltissue=700; L_HA=400; MT=2.54; Rad_Dielectric=30; Rad_Lower=7.3; Rad_Upper=30; a_HA=580; a_WG=246; b_HA=500; b_WG=121; c_HA=0; c_WG=187; d_feed=85; dx1=380.84; h_feed=15; h_lower=18; h_upper=40}
! Header version: 2018
! Port assignment regex: !\s*Touchstone port\s*([0-9]+)\s*=\s*(CST MWS port|CST DS port)\s*([0-9]+|Zmin|Zmax)\s*\(\"(.*)\"\)(\s*mode\s*([0-9]+))?.*
! Touchstone port assignment:
! Touchstone port 1 = CST MWS port 1 ("")
! Touchstone port 2 = CST MWS port 2 ("")
# GHz S DB R 50
0.5                    -0.210043        -121.267          -57.237         9.72677          -57.237         9.72746      -0.00792614         151.144
0.501                  -0.208099        -121.655         -57.1899         8.69053         -57.1899         8.69134      -0.00798919         151.079
0.502                   -0.20622        -122.046         -57.1412         7.64933         -57.1412         7.65026      -0.00805268         151.014
0.503                  -0.204409        -122.442         -57.0907         6.60324         -57.0908         6.60427       -0.0081166         150.948
0.504                  -0.202669         -122.84         -57.0385         5.55232         -57.0386         5.55346      -0.00818095         150.883
0.505                  -0.201002        -123.243         -56.9845         4.49665         -56.9846         4.49789      -0.00824575         150.817
0.506                  -0.199411         -123.65         -56.9287         3.43629         -56.9288         3.43762      -0.00831099         150.752
0.507                    -0.1979         -124.06         -56.8711         2.37131         -56.8712         2.37273      -0.00837669         150.686
0.508                  -0.196473        -124.474         -56.8115          1.3018         -56.8117          1.3033      -0.00844284          150.62
0.509                  -0.195132        -124.893         -56.7501        0.227826         -56.7503        0.229408      -0.00850945         150.555
0.51                   -0.193881        -125.315         -56.6868       -0.850532         -56.6869       -0.848877      -0.00857653         150.489
0.511                  -0.192724        -125.741         -56.6214        -1.93319         -56.6216        -1.93147      -0.00864408         150.423
0.512                  -0.191665        -126.172         -56.5541        -3.02008         -56.5543        -3.01829       -0.0087121         150.357
0.513                  -0.190708        -126.606         -56.4847        -4.11111          -56.485        -4.10927       -0.0087806         150.291
0.514                  -0.189857        -127.045         -56.4133         -5.2062         -56.4135        -5.20431      -0.00884959         150.224
0.515                  -0.189118        -127.488         -56.3398        -6.30528           -56.34        -6.30333      -0.00891906         150.158
0.516                  -0.188494        -127.935         -56.2641        -7.40825         -56.2644        -7.40626      -0.00898904         150.092
0.517                  -0.187991        -128.387         -56.1863        -8.51504         -56.1866        -8.51302      -0.00905951         150.025
0.518                  -0.187614        -128.843         -56.1063        -9.62558         -56.1066        -9.62352      -0.00913049         149.959
0.519                  -0.187369        -129.304         -56.0242        -10.7398         -56.0245        -10.7377      -0.00920198         149.892
0.52                   -0.187261        -129.769         -55.9397        -11.8576         -55.9401        -11.8554        -0.009274         149.825
0.521                  -0.187296        -130.238          -55.853        -12.9789         -55.8534        -12.9767      -0.00934653         149.759
0.522                  -0.187482        -130.713          -55.764        -14.1036         -55.7644        -14.1015      -0.00941959         149.692
0.523                  -0.187823        -131.192         -55.6727        -15.2318         -55.6731        -15.2296      -0.00949319         149.625
0.524                  -0.188328        -131.676         -55.5791        -16.3632         -55.5794         -16.361      -0.00956733         149.558
0.525                  -0.189004        -132.164          -55.483        -17.4979         -55.4834        -17.4957      -0.00964202         149.491
0.526                  -0.189859        -132.658         -55.3846        -18.6358         -55.3849        -18.6336      -0.00971726         149.423
0.527                    -0.1909        -133.157         -55.2837        -19.7769          -55.284        -19.7747      -0.00979306         149.356
0.528                  -0.192137         -133.66         -55.1803         -20.921         -55.1807        -20.9188      -0.00986943         149.289
0.529                  -0.193579        -134.169         -55.0745        -22.0683         -55.0749        -22.0661      -0.00994637         149.221
0.53                   -0.195234        -134.684         -54.9661        -23.2186         -54.9665        -23.2164       -0.0100239         149.153
0.531                  -0.197114        -135.203         -54.8553        -24.3719         -54.8556        -24.3697        -0.010102         149.086
0.532                  -0.199229        -135.728         -54.7418        -25.5282         -54.7422         -25.526       -0.0101807         149.018
0.533                   -0.20159        -136.259         -54.6258        -26.6875         -54.6261        -26.6853         -0.01026          148.95
0.534                  -0.204209        -136.795         -54.5071        -27.8498         -54.5075        -27.8477       -0.0103399         148.882
0.535                  -0.207099        -137.337         -54.3858        -29.0152         -54.3861        -29.0131       -0.0104205         148.814
0.536                  -0.210273        -137.885         -54.2618        -30.1836         -54.2622        -30.1815       -0.0105016         148.746
0.537                  -0.213746        -138.439         -54.1351        -31.3551         -54.1355         -31.353       -0.0105834         148.677
0.538                  -0.217532        -138.999         -54.0057        -32.5298         -54.0061        -32.5277       -0.0106658         148.609
0.539                  -0.221649        -139.565         -53.8736        -33.7076         -53.8739        -33.7056       -0.0107489          148.54
0.54                   -0.226111        -140.137         -53.7387        -34.8887          -53.739        -34.8867       -0.0108327         148.472
0.541                  -0.230939        -140.716         -53.6009        -36.0733         -53.6013        -36.0713       -0.0109171         148.403
0.542                   -0.23615        -141.302         -53.4604        -37.2613         -53.4607        -37.2593       -0.0110021         148.334
0.543                  -0.241766        -141.894          -53.317        -38.4529         -53.3173         -38.451       -0.0110879         148.265
0.544                  -0.247809        -142.494         -53.1707        -39.6483         -53.1711        -39.6464       -0.0111744         148.196
0.545                  -0.254301          -143.1         -53.0216        -40.8476         -53.0219        -40.8457       -0.0112615         148.127
0.546                  -0.261268        -143.713         -52.8694         -42.051         -52.8698        -42.0492       -0.0113494         148.058
0.547                  -0.268737        -144.334         -52.7144        -43.2587         -52.7147        -43.2569        -0.011438         147.988
0.548                  -0.276736        -144.963         -52.5563         -44.471         -52.5566        -44.4692       -0.0115274         147.919
0.549                  -0.285295        -145.599         -52.3952         -45.688         -52.3955        -45.6863       -0.0116175         147.849
0.55                   -0.294448        -146.243         -52.2311        -46.9102         -52.2314        -46.9085       -0.0117084          147.78
0.551                  -0.304229        -146.895         -52.0639        -48.1377         -52.0642         -48.136       -0.0118001          147.71
0.552                  -0.314677        -147.555         -51.8936        -49.3709         -51.8939        -49.3693       -0.0118925          147.64
0.553                  -0.325831        -148.224         -51.7202        -50.6101         -51.7204        -50.6086       -0.0119858          147.57
0.554                  -0.337736        -148.902         -51.5436        -51.8558         -51.5438        -51.8543       -0.0120799         147.499
0.555                  -0.350439        -149.588         -51.3638        -53.1084          -51.364         -53.107       -0.0121749         147.429
0.556                  -0.363989        -150.284         -51.1808        -54.3683          -51.181        -54.3669       -0.0122707         147.359
0.557                  -0.378442        -150.989         -50.9945        -55.6361         -50.9947        -55.6347       -0.0123674         147.288
0.558                  -0.393857        -151.704          -50.805        -56.9122         -50.8052        -56.9108       -0.0124651         147.217
0.559                  -0.410298        -152.428         -50.6121        -58.1972         -50.6123        -58.1959       -0.0125636         147.146
0.56                   -0.427832        -153.163         -50.4159        -59.4918         -50.4161        -59.4905       -0.0126632         147.075
0.561                  -0.446536        -153.907         -50.2163        -60.7966         -50.2165        -60.7954       -0.0127637         147.004
0.562                  -0.466489        -154.663         -50.0134        -62.1123         -50.0135        -62.1112       -0.0128653         146.933
0.563                  -0.487779        -155.429          -49.807        -63.4398         -49.8071        -63.4386        -0.012968         146.862
0.564                  -0.510502        -156.207         -49.5971        -64.7797         -49.5973        -64.7786       -0.0130718          146.79
0.565                  -0.534761        -156.996         -49.3838         -66.133         -49.3839         -66.132       -0.0131767         146.719
0.566                  -0.560667        -157.796          -49.167        -67.5007         -49.1671        -67.4997       -0.0132829         146.647
0.567                  -0.588344        -158.608         -48.9466        -68.8836         -48.9468        -68.8827       -0.0133903         146.575
0.568                  -0.617923        -159.433         -48.7228         -70.283         -48.7229        -70.2821       -0.0134991         146.503
0.569                   -0.64955         -160.27         -48.4953        -71.6999         -48.4954        -71.6991       -0.0136092          146.43
0.57                   -0.683383        -161.119         -48.2644        -73.1356         -48.2645        -73.1348       -0.0137209         146.358
0.571                  -0.719593        -161.982         -48.0298        -74.5914         -48.0299        -74.5906       -0.0138341         146.286
0.572                  -0.758368        -162.857         -47.7917        -76.0686         -47.7918        -76.0678       -0.0139489         146.213
0.573                  -0.799912        -163.745         -47.5501        -77.5687         -47.5502         -77.568       -0.0140656          146.14
0.574                   -0.84445        -164.647          -47.305        -79.0933          -47.305        -79.0926       -0.0141841         146.067
0.575                  -0.892225        -165.562         -47.0563         -80.644         -47.0564        -80.6434       -0.0143046         145.994
0.576                  -0.943503         -166.49         -46.8042        -82.2227         -46.8043        -82.2221       -0.0144274         145.921
0.577                  -0.998573        -167.431         -46.5487        -83.8311         -46.5488        -83.8306       -0.0145525         145.847
0.578                   -1.05775        -168.385         -46.2899        -85.4713           -46.29        -85.4708       -0.0146801         145.773
0.579                   -1.12139        -169.351         -46.0279        -87.1453         -46.0279        -87.1448       -0.0148104           145.7
0.58                    -1.18985        -170.329         -45.7628        -88.8553         -45.7628        -88.8549       -0.0149437         145.626
0.581                   -1.26355        -171.319         -45.4947        -90.6037         -45.4947        -90.6033       -0.0150803         145.551
0.582                   -1.34293        -172.318         -45.2237        -92.3927         -45.2238        -92.3923       -0.0152203         145.477
0.583                   -1.42846        -173.326         -44.9502        -94.2249         -44.9502        -94.2246       -0.0153642         145.403
0.584                   -1.52065        -174.341         -44.6743        -96.1029         -44.6743        -96.1027       -0.0155122         145.328
0.585                   -1.62007        -175.361         -44.3963        -98.0294         -44.3963        -98.0292       -0.0156647         145.253
0.586                   -1.72729        -176.384         -44.1165        -100.007         -44.1165        -100.007       -0.0158222         145.178
0.587                   -1.84294        -177.406         -43.8353        -102.039         -43.8353        -102.038        -0.015985         145.103
0.588                   -1.96767        -178.424          -43.553        -104.127          -43.553        -104.127       -0.0161535         145.027
0.589                   -2.10215        -179.432         -43.2703        -106.275         -43.2703        -106.274       -0.0163284         144.952
0.59                    -2.24707         179.574         -42.9876        -108.484         -42.9875        -108.484         -0.01651         144.876
0.591                   -2.40311         178.602         -42.7055        -110.759         -42.7055        -110.759       -0.0166989           144.8
0.592                   -2.57093          177.66         -42.4247          -113.1         -42.4247          -113.1       -0.0168955         144.724
0.593                   -2.75114         176.757          -42.146        -115.511          -42.146        -115.511       -0.0171004         144.647
0.594                   -2.94425         175.904         -41.8702        -117.992         -41.8702        -117.992       -0.0173141         144.571
0.595                   -3.15062         175.114         -41.5983        -120.546         -41.5983        -120.546       -0.0175369         144.494
0.596                    -3.3704         174.403         -41.3312        -123.172         -41.3311        -123.172       -0.0177692         144.417
0.597                   -3.60346         173.787         -41.0699        -125.872         -41.0699        -125.872       -0.0180113          144.34
0.598                   -3.84925         173.285         -40.8156        -128.643         -40.8156        -128.643       -0.0182634         144.263
0.599                    -4.1067         172.917         -40.5695        -131.486         -40.5695        -131.486       -0.0185254         144.185
0.6                     -4.37409         172.706         -40.3326        -134.396         -40.3326        -134.396       -0.0187974         144.108
0.601                   -4.64885         172.674         -40.1062        -137.371         -40.1062        -137.371        -0.019079          144.03
0.602                    -4.9275         172.843         -39.8914        -140.405         -39.8914        -140.405       -0.0193698         143.952
0.603                   -5.20543         173.234         -39.6893        -143.494         -39.6893        -143.494       -0.0196691         143.874
0.604                   -5.47692          173.86         -39.5009        -146.629         -39.5009        -146.629       -0.0199763         143.796
0.605                   -5.73518         174.731          -39.327        -149.804          -39.327        -149.804       -0.0202903         143.718
0.606                   -5.97258         175.842         -39.1685        -153.008         -39.1685        -153.008       -0.0206101         143.639
0.607                    -6.1811         177.178         -39.0258        -156.233         -39.0257        -156.233       -0.0209347          143.56
0.608                   -6.35298         178.709         -38.8992        -159.468         -38.8992        -159.468       -0.0212627         143.482
0.609                   -6.48152        -179.611          -38.789        -162.702         -38.7889        -162.702       -0.0215931         143.403
0.61                    -6.56192        -177.841         -38.6949        -165.926         -38.6949        -165.926       -0.0219247         143.324
0.611                   -6.59189        -176.047         -38.6168        -169.128         -38.6167        -169.128       -0.0222563         143.244
0.612                   -6.57199        -174.295          -38.554        -172.299         -38.5539        -172.299       -0.0225871         143.165
0.613                   -6.50546         -172.65         -38.5058        -175.431         -38.5058         -175.43       -0.0229163         143.086
0.614                   -6.39773        -171.163         -38.4715        -178.514         -38.4715        -178.513       -0.0232431         143.006
0.615                   -6.25568        -169.872         -38.4499         178.459         -38.4499         178.459       -0.0235671         142.926
0.616                   -6.08678        -168.803         -38.4401         175.494           -38.44         175.494       -0.0238879         142.846
0.617                   -5.89842        -167.965         -38.4408         172.595         -38.4407         172.595       -0.0242054         142.765
0.618                   -5.69738        -167.359         -38.4508         169.766         -38.4507         169.767       -0.0245195         142.685
0.619                   -5.48956        -166.975         -38.4689         167.011         -38.4689         167.011       -0.0248303         142.604
0.62                    -5.27981          -166.8          -38.494         164.331         -38.4939         164.331       -0.0251381         142.523
0.621                   -5.07199        -166.816         -38.5248         161.726         -38.5248         161.726        -0.025443         142.442
0.622                   -4.86903        -167.003         -38.5604         159.197         -38.5603         159.197       -0.0257456          142.36
0.623                   -4.67305        -167.344         -38.5996         156.743         -38.5996         156.744       -0.0260462         142.278
0.624                   -4.48553        -167.821         -38.6415         154.363         -38.6415         154.363       -0.0263452         142.196
0.625                   -4.30742        -168.415         -38.6852         152.055         -38.6852         152.055       -0.0266431         142.114
0.626                   -4.13924        -169.114           -38.73         149.816         -38.7299         149.816       -0.0269405         142.032
0.627                   -3.98122        -169.902         -38.7749         147.644         -38.7749         147.644       -0.0272377         141.949
0.628                   -3.83337        -170.768         -38.8195         145.536         -38.8195         145.536       -0.0275353         141.866
0.629                   -3.69552        -171.702         -38.8631          143.49         -38.8631          143.49       -0.0278338         141.782
0.63                    -3.56738        -172.695         -38.9053         141.502         -38.9052         141.502       -0.0281336         141.699
0.631                   -3.44861         -173.74         -38.9454          139.57         -38.9454          139.57        -0.028435         141.615
0.632                   -3.33881        -174.829         -38.9832          137.69         -38.9832          137.69       -0.0287386          141.53
0.633                   -3.23755        -175.958         -39.0183         135.859         -39.0183         135.859       -0.0290447         141.446
0.634                   -3.14441        -177.122         -39.0504         134.075         -39.0504         134.075       -0.0293537         141.361
0.635                   -3.05895        -178.317         -39.0792         132.334         -39.0792         132.334        -0.029666         141.276
0.636                   -2.98078         -179.54         -39.1046         130.633         -39.1045         130.633       -0.0299817          141.19
0.637                   -2.90948         179.212         -39.1262          128.97         -39.1262          128.97       -0.0303014         141.104
0.638                    -2.8447         177.941         -39.1441         127.342          -39.144         127.342       -0.0306252         141.018
0.639                   -2.78607         176.648         -39.1579         125.746         -39.1579         125.746       -0.0309534         140.932
0.64                    -2.73327         175.335         -39.1678          124.18         -39.1678          124.18       -0.0312863         140.845
0.641                     -2.686         174.003         -39.1735         122.641         -39.1735         122.641       -0.0316242         140.758
0.642                   -2.64399         172.652          -39.175         121.127         -39.1749         121.127       -0.0319672          140.67
0.643                   -2.60697         171.284         -39.1722         119.636         -39.1722         119.636       -0.0323157         140.582
0.644                   -2.57473         169.898         -39.1652         118.165         -39.1652         118.165       -0.0326698         140.494
0.645                   -2.54705         168.495         -39.1539         116.713         -39.1539         116.713       -0.0330298         140.406
0.646                   -2.52374         167.075         -39.1383         115.277         -39.1382         115.277       -0.0333958         140.317
0.647                   -2.50466         165.637         -39.1184         113.856         -39.1183         113.856       -0.0337681         140.228
0.648                   -2.48964         164.182         -39.0942         112.447         -39.0942         112.447       -0.0341468         140.138
0.649                   -2.47857         162.709         -39.0657         111.049         -39.0657         111.049       -0.0345323         140.048
0.65                    -2.47133         161.217         -39.0331          109.66         -39.0331          109.66       -0.0349245         139.958
0.651                   -2.46783         159.706         -38.9963         108.279         -38.9963         108.279       -0.0353238         139.867
0.652                     -2.468         158.176         -38.9553         106.903         -38.9553         106.903       -0.0357304         139.776
0.653                   -2.47178         156.625         -38.9103         105.531         -38.9103         105.531       -0.0361444         139.685
0.654                   -2.47912         155.053         -38.8613         104.162         -38.8613         104.162        -0.036566         139.593
0.655                   -2.48999          153.46         -38.8084         102.794         -38.8084         102.794       -0.0369954         139.501
0.656                   -2.50438         151.844         -38.7515         101.425         -38.7515         101.425       -0.0374329         139.408
0.657                   -2.52229         150.204         -38.6909         100.055         -38.6909         100.055       -0.0378786         139.315
0.658                   -2.54372         148.539         -38.6266         98.6809         -38.6266         98.6809       -0.0383326         139.221
0.659                    -2.5687         146.849         -38.5587         97.3027         -38.5587         97.3027       -0.0387953         139.128
0.66                    -2.59727         145.132         -38.4873         95.9186         -38.4873         95.9186       -0.0392668         139.033
0.661                   -2.62948         143.387         -38.4125         94.5274         -38.4125         94.5274       -0.0397474         138.939
0.662                    -2.6654         141.613         -38.3344         93.1277         -38.3344         93.1277       -0.0402372         138.843
0.663                   -2.70509         139.808         -38.2532         91.7184         -38.2532         91.7184       -0.0407364         138.748
0.664                   -2.74866         137.972         -38.1689         90.2983         -38.1689         90.2983       -0.0412454         138.652
0.665                    -2.7962         136.102         -38.0817         88.8662         -38.0817         88.8663       -0.0417642         138.555
0.666                   -2.84783         134.198         -37.9918         87.4211         -37.9917         87.4211       -0.0422932         138.458
0.667                   -2.90368         132.257         -37.8992         85.9618         -37.8992         85.9618       -0.0428325         138.361
0.668                    -2.9639         130.278         -37.8041         84.4873         -37.8041         84.4874       -0.0433825         138.263
0.669                   -3.02864          128.26         -37.7068         82.9967         -37.7068         82.9967       -0.0439434         138.165
0.67                    -3.09808           126.2         -37.6074         81.4889         -37.6074         81.4889       -0.0445154         138.066
0.671                   -3.17239         124.098          -37.506          79.963          -37.506          79.963       -0.0450988         137.967
0.672                   -3.25179          121.95         -37.4029         78.4183         -37.4029         78.4183       -0.0456938         137.867
0.673                   -3.33648         119.755         -37.2982         76.8539         -37.2982         76.8539       -0.0463008         137.766
0.674                   -3.42669          117.51         -37.1922         75.2691         -37.1922         75.2691         -0.04692         137.666
0.675                   -3.52266         115.214         -37.0851         73.6633         -37.0851         73.6633       -0.0475517         137.564
0.676                   -3.62464         112.865         -36.9772         72.0358         -36.9771         72.0358       -0.0481962         137.462
0.677                    -3.7329         110.459         -36.8685         70.3863         -36.8685         70.3862       -0.0488539          137.36
0.678                   -3.84771         107.994         -36.7595         68.7142         -36.7594         68.7142        -0.049525         137.257
0.679                   -3.96937         105.467         -36.6503         67.0193         -36.6502         67.0193       -0.0502098         137.153
0.68                    -4.09816         102.875         -36.5412         65.3014         -36.5411         65.3014       -0.0509088         137.049
0.681                   -4.23438         100.217         -36.4324         63.5604         -36.4324         63.5604       -0.0516222         136.944
0.682                   -4.37834         97.4867         -36.3243         61.7964         -36.3243         61.7963       -0.0523504         136.839
0.683                   -4.53033         94.6826         -36.2172         60.0095         -36.2171         60.0094       -0.0530937         136.733
0.684                   -4.69065         91.8005         -36.1111            58.2         -36.1111         58.1999       -0.0538526         136.627
0.685                   -4.85959         88.8364         -36.0066         56.3684         -36.0066         56.3682       -0.0546274         136.519
0.686                   -5.03741         85.7862         -35.9038         54.5152         -35.9037          54.515       -0.0554185         136.412
0.687                   -5.22434         82.6455         -35.8029         52.6411         -35.8029          52.641       -0.0562264         136.303
0.688                   -5.42059         79.4094         -35.7044         50.7472         -35.7043          50.747       -0.0570514         136.194
0.689                   -5.62631         76.0727         -35.6083         48.8343         -35.6083         48.8342        -0.057894         136.084
0.69                    -5.84157           72.63          -35.515         46.9037          -35.515         46.9036       -0.0587546         135.974
0.691                   -6.06639         69.0753         -35.4247         44.9567         -35.4247         44.9565       -0.0596337         135.863
0.692                   -6.30065         65.4023         -35.3376         42.9948         -35.3376         42.9946       -0.0605318         135.751
0.693                   -6.54412         61.6043         -35.2539         41.0195         -35.2539         41.0193       -0.0614493         135.639
0.694                   -6.79641          57.674         -35.1738         39.0326         -35.1738         39.0324       -0.0623867         135.526
0.695                   -7.05694         53.6041         -35.0974         37.0358         -35.0974         37.0357       -0.0633446         135.412
0.696                   -7.32488         49.3867          -35.025         35.0312          -35.025         35.0311       -0.0643235         135.297