! TOUCHSTONE file generated by CST MICROWAVE STUDIO
! Date and time: Sat Oct 24 10:44:52 2020
! Project name: Scenario_1_Planar_Body_Tissue_Center.cst
! Parameters = {hfat=3; hmuscle=50; hskin=1.5; hgap=25; Wtissue=700; Ltissue=700; L_HA=400; MT=2.54; Rad_Dielectric=30; Rad_Lower=7.3; Rad_Upper=30; a_HA=580; a_WG=246; b_HA=500; b_WG=121; c_HA=0; c_WG=187; d_feed=85; dx1=415.48; h_feed=15; h_lower=18; h_upper=40}
! Header version: 2018
! Port assignment regex: !\s*Touchstone port\s*([0-9]+)\s*=\s*(CST MWS port|CST DS port)\s*([0-9]+|Zmin|Zmax)\s*\(\"(.*)\"\)(\s*mode\s*([0-9]+))?.*
! Touchstone port assignment:
! Touchstone port 1 = CST MWS port 1 ("")
! Touchstone port 2 = CST MWS port 2 ("")
# GHz S DB R 50
0.5                    -0.141169        -121.302         -59.2264        -7.80022         -59.2263        -7.79974      -0.00774441         151.148
0.501                   -0.14143        -121.729         -59.1592        -8.85089         -59.1591        -8.85018      -0.00780368         151.083
0.502                   -0.14178        -122.158         -59.0892        -9.90579         -59.0892        -9.90486      -0.00786335         151.017
0.503                  -0.142221         -122.59         -59.0165        -10.9647         -59.0164        -10.9636      -0.00792343         150.952
0.504                  -0.142756        -123.026         -58.9409        -12.0275         -58.9408        -12.0262      -0.00798391         150.887
0.505                  -0.143389        -123.464         -58.8625        -13.0939         -58.8624        -13.0924      -0.00804481         150.821
0.506                  -0.144122        -123.906         -58.7812        -14.1638         -58.7811        -14.1622      -0.00810614         150.756
0.507                   -0.14496        -124.351         -58.6969        -15.2369         -58.6968        -15.2352       -0.0081679          150.69
0.508                  -0.145904          -124.8         -58.6098        -16.3132         -58.6097        -16.3113       -0.0082301         150.624
0.509                   -0.14696        -125.251         -58.5196        -17.3923         -58.5195        -17.3904      -0.00829274         150.558
0.51                   -0.148131        -125.706         -58.4265        -18.4742         -58.4264        -18.4722      -0.00835584         150.493
0.511                  -0.149422        -126.165         -58.3304        -19.5588         -58.3302        -19.5566       -0.0084194         150.427
0.512                  -0.150837        -126.627         -58.2312        -20.6457         -58.2311        -20.6435      -0.00848344         150.361
0.513                   -0.15238        -127.093          -58.129        -21.7349         -58.1289        -21.7327      -0.00854795         150.294
0.514                  -0.154058        -127.563         -58.0237        -22.8264         -58.0236        -22.8241      -0.00861295         150.228
0.515                  -0.155874        -128.036         -57.9153        -23.9198         -57.9152        -23.9175      -0.00867844         150.162
0.516                  -0.157836        -128.513         -57.8038        -25.0152         -57.8036        -25.0129      -0.00874444         150.096
0.517                  -0.159948        -128.994         -57.6891        -26.1124          -57.689        -26.1101      -0.00881095         150.029
0.518                  -0.162218        -129.479         -57.5713        -27.2114         -57.5712        -27.2091      -0.00887798         149.963
0.519                  -0.164653        -129.968         -57.4504         -28.312         -57.4502        -28.3098      -0.00894555         149.896
0.52                   -0.167259        -130.462         -57.3262        -29.4142         -57.3261        -29.4121      -0.00901365         149.829
0.521                  -0.170045        -130.959         -57.1988        -30.5181         -57.1987         -30.516       -0.0090823         149.762
0.522                  -0.173019        -131.461         -57.0682        -31.6235         -57.0681        -31.6214      -0.00915152         149.696
0.523                   -0.17619        -131.967         -56.9344        -32.7304         -56.9343        -32.7284       -0.0092213         149.629
0.524                  -0.179568        -132.478         -56.7973        -33.8389         -56.7972         -33.837      -0.00929166         149.562
0.525                  -0.183162        -132.994         -56.6569         -34.949         -56.6568        -34.9472      -0.00936261         149.494
0.526                  -0.186984        -133.514         -56.5132        -36.0608         -56.5131         -36.059      -0.00943417         149.427
0.527                  -0.191045         -134.04         -56.3661        -37.1742         -56.3661        -37.1725      -0.00950634          149.36
0.528                  -0.195359         -134.57         -56.2158        -38.2895         -56.2157        -38.2879      -0.00957913         149.292
0.529                  -0.199938        -135.105         -56.0621        -39.4068          -56.062        -39.4053      -0.00965256         149.225
0.53                   -0.204796        -135.646         -55.9049        -40.5261         -55.9049        -40.5247      -0.00972664         149.157
0.531                   -0.20995        -136.192         -55.7444        -41.6476         -55.7443        -41.6463      -0.00980138         149.089
0.532                  -0.215417        -136.744         -55.5805        -42.7717         -55.5804        -42.7705       -0.0098768         149.022
0.533                  -0.221214        -137.301          -55.413        -43.8983          -55.413        -43.8972       -0.0099529         148.954
0.534                   -0.22736        -137.864         -55.2421         -45.028         -55.2421         -45.027       -0.0100297         148.886
0.535                  -0.233878        -138.433         -55.0677        -46.1608         -55.0677        -46.1599       -0.0101073         148.817
0.536                  -0.240789        -139.008         -54.8898        -47.2971         -54.8897        -47.2964       -0.0101855         148.749
0.537                  -0.248117        -139.589         -54.7083        -48.4374         -54.7082        -48.4367       -0.0102645         148.681
0.538                   -0.25589        -140.177         -54.5231        -49.5819         -54.5231        -49.5813       -0.0103443         148.612
0.539                  -0.264137        -140.772         -54.3344         -50.731         -54.3344        -50.7306       -0.0104249         148.544
0.54                   -0.272887        -141.373         -54.1419        -51.8854         -54.1419         -51.885       -0.0105064         148.475
0.541                  -0.282175        -141.982         -53.9458        -53.0453         -53.9458        -53.0451       -0.0105886         148.406
0.542                  -0.292038        -142.598         -53.7459        -54.2115         -53.7459        -54.2113       -0.0106717         148.337
0.543                  -0.302515        -143.221         -53.5423        -55.3844         -53.5423        -55.3843       -0.0107557         148.268
0.544                  -0.313649        -143.852         -53.3348        -56.5647         -53.3348        -56.5647       -0.0108406         148.199
0.545                  -0.325489        -144.491         -53.1234        -57.7532         -53.1234        -57.7533       -0.0109264          148.13
0.546                  -0.338085        -145.138         -52.9081        -58.9505         -52.9082        -58.9507       -0.0110133         148.061
0.547                  -0.351494        -145.794         -52.6889        -60.1574          -52.689        -60.1577       -0.0111011         147.991
0.548                  -0.365777        -146.458         -52.4657        -61.3749         -52.4657        -61.3753         -0.01119         147.922
0.549                  -0.381001        -147.131         -52.2384        -62.6038         -52.2385        -62.6043       -0.0112799         147.852
0.55                    -0.39724        -147.813          -52.007        -63.8452         -52.0071        -63.8457       -0.0113711         147.782
0.551                  -0.414575        -148.505         -51.7715        -65.1002         -51.7716        -65.1007       -0.0114633         147.712
0.552                  -0.433093        -149.207         -51.5318        -66.3698         -51.5319        -66.3704       -0.0115569         147.642
0.553                  -0.452894        -149.918         -51.2879        -67.6553          -51.288         -67.656       -0.0116517         147.572
0.554                  -0.474082         -150.64         -51.0396        -68.9582         -51.0397        -68.9588       -0.0117479         147.502
0.555                  -0.496776        -151.373         -50.7871        -70.2797         -50.7872        -70.2804       -0.0118456         147.431
0.556                  -0.521105        -152.116         -50.5301        -71.6215         -50.5303        -71.6222       -0.0119447         147.361
0.557                  -0.547212         -152.87         -50.2688        -72.9852         -50.2689        -72.9859       -0.0120455          147.29
0.558                  -0.575254        -153.636          -50.003        -74.3726         -50.0031        -74.3734        -0.012148         147.219
0.559                  -0.605405        -154.413         -49.7327        -75.7856         -49.7329        -75.7864       -0.0122523         147.148
0.56                   -0.637856        -155.202          -49.458        -77.2262         -49.4582         -77.227       -0.0123586         147.077
0.561                  -0.672819        -156.003         -49.1788        -78.6967         -49.1789        -78.6975        -0.012467         147.006
0.562                  -0.710526        -156.815          -48.895        -80.1994         -48.8952        -80.2002       -0.0125776         146.934
0.563                  -0.751237         -157.64         -48.6068        -81.7368          -48.607        -81.7376       -0.0126907         146.863
0.564                  -0.795234        -158.476         -48.3142        -83.3117         -48.3144        -83.3124       -0.0128063         146.791
0.565                  -0.842831        -159.324         -48.0171        -84.9269         -48.0173        -84.9275       -0.0129248         146.719
0.566                  -0.894373        -160.184         -47.7158        -86.5854          -47.716        -86.5861       -0.0130463         146.647
0.567                  -0.950238        -161.053         -47.4103        -88.2907         -47.4105        -88.2913       -0.0131712         146.575
0.568                   -1.01084        -161.933         -47.1007        -90.0462          -47.101        -90.0467       -0.0132996         146.503
0.569                   -1.07664        -162.821         -46.7873        -91.8555         -46.7876         -91.856        -0.013432          146.43
0.57                    -1.14812        -163.716         -46.4703        -93.7226         -46.4706         -93.723       -0.0135686         146.358
0.571                   -1.22583        -164.617           -46.15        -95.6516         -46.1503        -95.6519       -0.0137099         146.285
0.572                   -1.31032         -165.52         -45.8268        -97.6467          -45.827         -97.647       -0.0138562         146.212
0.573                   -1.40222        -166.423          -45.501        -99.7125         -45.5013        -99.7127        -0.014008         146.139
0.574                   -1.50215        -167.322         -45.1733        -101.853         -45.1735        -101.853       -0.0141657         146.066
0.575                   -1.61077        -168.211         -44.8442        -104.074         -44.8444        -104.074       -0.0143298         145.993
0.576                   -1.72874        -169.085         -44.5145        -106.379         -44.5147        -106.379       -0.0145008         145.919
0.577                    -1.8567        -169.937         -44.1851        -108.773         -44.1853        -108.773       -0.0146792         145.845
0.578                   -1.99521        -170.757         -43.8569         -111.26         -43.8571         -111.26       -0.0148656         145.772
0.579                   -2.14476        -171.535          -43.531        -113.844         -43.5312        -113.844       -0.0150603         145.698
0.58                    -2.30566         -172.26         -43.2088        -116.529          -43.209        -116.529       -0.0152638         145.623
0.581                   -2.47797        -172.916         -42.8917        -119.317         -42.8919        -119.317       -0.0154766         145.549
0.582                   -2.66141        -173.488         -42.5812         -122.21         -42.5814         -122.21       -0.0156988         145.475
0.583                   -2.85524        -173.957         -42.2791        -125.209         -42.2793        -125.209       -0.0159307           145.4
0.584                   -3.05812        -174.304         -41.9872        -128.313         -41.9874        -128.312       -0.0161722         145.326
0.585                   -3.26796         -174.51         -41.7075        -131.518         -41.7076        -131.517       -0.0164232         145.251
0.586                    -3.4818        -174.556         -41.4418        -134.821         -41.4419         -134.82       -0.0166834         145.176
0.587                   -3.69572        -174.423         -41.1922        -138.214         -41.1923        -138.213       -0.0169521         145.101
0.588                   -3.90479          -174.1         -40.9605        -141.689         -40.9605        -141.689       -0.0172285         145.026
0.589                   -4.10319        -173.581         -40.7483        -145.235         -40.7484        -145.234       -0.0175117          144.95
0.59                    -4.28449         -172.87         -40.5573        -148.838         -40.5574        -148.837       -0.0178003         144.875
0.591                   -4.44204        -171.982         -40.3886        -152.483         -40.3886        -152.483        -0.018093         144.799
0.592                   -4.56964        -170.947          -40.243        -156.154          -40.243        -156.154       -0.0183884         144.724
0.593                    -4.6622        -169.804         -40.1209        -159.834         -40.1209        -159.833       -0.0186847         144.648
0.594                   -4.71637        -168.602         -40.0224        -163.504         -40.0224        -163.504       -0.0189806         144.572
0.595                   -4.73099        -167.396         -39.9469        -167.147         -39.9469        -167.147       -0.0192746         144.497
0.596                   -4.70721         -166.24         -39.8936        -170.748         -39.8936        -170.748       -0.0195653         144.421
0.597                   -4.64827        -165.181         -39.8613         -174.29         -39.8613        -174.291       -0.0198516         144.344
0.598                   -4.55898        -164.258         -39.8485        -177.762         -39.8485        -177.762       -0.0201326         144.268
0.599                   -4.44506        -163.497         -39.8534         178.849         -39.8534         178.849       -0.0204077         144.192
0.6                     -4.31256        -162.915         -39.8741         175.552         -39.8741         175.551       -0.0206764         144.115
0.601                   -4.16727        -162.515         -39.9086         172.352         -39.9087         172.351       -0.0209387         144.038
0.602                   -4.01437        -162.295          -39.955         169.255         -39.9551         169.254       -0.0211946         143.962
0.603                   -3.85829        -162.245         -40.0114         166.262         -40.0114         166.261       -0.0214443         143.884
0.604                   -3.70257        -162.353         -40.0757         163.375         -40.0758         163.375       -0.0216884         143.807
0.605                   -3.54996        -162.603         -40.1464         160.594         -40.1465         160.593       -0.0219272          143.73
0.606                   -3.40246         -162.98         -40.2218         157.916         -40.2219         157.915       -0.0221614         143.652
0.607                   -3.26149        -163.468         -40.3004         155.338         -40.3006         155.337       -0.0223918         143.574
0.608                   -3.12795        -164.054          -40.381         152.857         -40.3811         152.856       -0.0226189         143.496
0.609                   -3.00235        -164.724         -40.4624         150.469         -40.4625         150.468       -0.0228435         143.417
0.61                    -2.88493        -165.467         -40.5435         148.169         -40.5437         148.168       -0.0230663         143.339
0.611                   -2.77568        -166.273         -40.6235         145.953         -40.6237         145.952        -0.023288          143.26
0.612                   -2.67448        -167.133         -40.7017         143.815         -40.7019         143.815        -0.023509         143.181
0.613                   -2.58108         -168.04         -40.7774         141.752         -40.7776         141.751       -0.0237302         143.101
0.614                   -2.49516        -168.987           -40.85         139.758         -40.8502         139.758       -0.0239519         143.022
0.615                   -2.41637        -169.969         -40.9192         137.829         -40.9194         137.828       -0.0241746         142.942
0.616                   -2.34436        -170.982         -40.9844          135.96         -40.9846         135.959       -0.0243989         142.862
0.617                   -2.27874        -172.022         -41.0455         134.147         -41.0457         134.146       -0.0246251         142.781
0.618                   -2.21916        -173.087         -41.1021         132.385         -41.1023         132.385       -0.0248537         142.701
0.619                   -2.16527        -174.173         -41.1541         130.672         -41.1543         130.671       -0.0250848          142.62
0.62                    -2.11673        -175.279         -41.2012         129.002         -41.2014         129.002       -0.0253189         142.539
0.621                   -2.07325        -176.403         -41.2435         127.373         -41.2437         127.373       -0.0255562         142.457
0.622                   -2.03454        -177.544         -41.2807         125.781         -41.2809         125.781        -0.025797         142.376
0.623                   -2.00033        -178.701         -41.3129         124.223         -41.3131         124.223       -0.0260414         142.294
0.624                   -1.97039        -179.874           -41.34         122.696         -41.3402         122.696       -0.0262897         142.211
0.625                    -1.9445         178.938         -41.3619         121.198         -41.3621         121.198       -0.0265421         142.129
0.626                   -1.92248         177.736         -41.3787         119.724         -41.3789         119.724       -0.0267987         142.046
0.627                   -1.90414         176.519         -41.3905         118.274         -41.3906         118.274       -0.0270597         141.963
0.628                   -1.88935         175.287         -41.3971         116.844         -41.3973         116.844       -0.0273253          141.88
0.629                   -1.87797          174.04         -41.3987         115.432         -41.3988         115.432       -0.0275955         141.796
0.63                    -1.86989         172.778         -41.3953         114.036         -41.3954         114.036       -0.0278705         141.712
0.631                   -1.86501         171.501          -41.387         112.654         -41.3871         112.655       -0.0281504         141.628
0.632                   -1.86325         170.209         -41.3737         111.285         -41.3739         111.285       -0.0284354         141.544
0.633                   -1.86456           168.9         -41.3557         109.925         -41.3558         109.925       -0.0287255         141.459
0.634                   -1.86888         167.574          -41.333         108.573         -41.3331         108.574       -0.0290209         141.374
0.635                   -1.87618         166.231         -41.3055         107.229         -41.3056         107.229       -0.0293217         141.289
0.636                   -1.88644          164.87         -41.2735         105.889         -41.2736         105.889       -0.0296279         141.203
0.637                   -1.89965          163.49         -41.2371         104.552         -41.2371         104.553       -0.0299397         141.117
0.638                   -1.91583         162.092         -41.1962         103.218         -41.1962         103.218       -0.0302572         141.031
0.639                     -1.935         160.673          -41.151         101.884          -41.151         101.884       -0.0305805         140.944
0.64                    -1.95718         159.233         -41.1016         100.549         -41.1016         100.549       -0.0309096         140.857
0.641                   -1.98244         157.771         -41.0481         99.2109         -41.0481          99.211       -0.0312448          140.77
0.642                   -2.01081         156.287         -40.9906         97.8696         -40.9906         97.8697       -0.0315861         140.682
0.643                   -2.04239         154.779         -40.9292         96.5232         -40.9292         96.5233       -0.0319336         140.595
0.644                   -2.07725         153.246          -40.864         95.1705          -40.864         95.1706       -0.0322874         140.506
0.645                    -2.1155         151.688         -40.7951         93.8104         -40.7951         93.8104       -0.0326477         140.418
0.646                   -2.15725         150.104         -40.7228         92.4416         -40.7227         92.4415       -0.0330145         140.329
0.647                   -2.20262         148.492          -40.647          91.063          -40.647         91.0629        -0.033388          140.24
0.648                   -2.25175         146.851         -40.5679         89.6734         -40.5679         89.6732       -0.0337684          140.15
0.649                   -2.30482          145.18         -40.4857         88.2718         -40.4857         88.2716       -0.0341557          140.06
0.65                    -2.36198         143.478         -40.4006         86.8571         -40.4005         86.8568       -0.0345501          139.97
0.651                   -2.42343         141.743         -40.3125         85.4283         -40.3125          85.428       -0.0349517         139.879
0.652                   -2.48937         139.974         -40.2218         83.9844         -40.2218         83.9841       -0.0353606         139.788
0.653                   -2.56002         138.171         -40.1286         82.5245         -40.1285         82.5241       -0.0357771         139.697
0.654                   -2.63564         136.331          -40.033         81.0477          -40.033         81.0472       -0.0362013         139.605
0.655                   -2.71647         134.453         -39.9353          79.553         -39.9352         79.5525       -0.0366333         139.513
0.656                   -2.80281         132.535         -39.8356         78.0398         -39.8355         78.0392       -0.0370733          139.42
0.657                   -2.89495         130.577         -39.7341         76.5071          -39.734         76.5066       -0.0375214         139.327
0.658                   -2.99322         128.575          -39.631         74.9544          -39.631         74.9538        -0.037978         139.234
0.659                   -3.09797          126.53         -39.5266         73.3809         -39.5265         73.3803       -0.0384431          139.14
0.66                    -3.20958         124.438          -39.421         71.7861         -39.4209         71.7855        -0.038917         139.046
0.661                   -3.32842         122.298         -39.3145         70.1695         -39.3144         70.1688       -0.0393998         138.951
0.662                   -3.45494         120.107         -39.2073         68.5306         -39.2072         68.5299       -0.0398919         138.856
0.663                   -3.58958         117.865         -39.0997          66.869         -39.0996         66.8683       -0.0403933         138.761
0.664                   -3.73282         115.568         -38.9919         65.1846         -38.9918         65.1839       -0.0409045         138.665
0.665                   -3.88515         113.215         -38.8841         63.4772         -38.8841         63.4765       -0.0414255         138.568
0.666                   -4.04712         110.803         -38.7767         61.7468         -38.7767         61.7461       -0.0419567         138.471
0.667                   -4.21929         108.329           -38.67         59.9934         -38.6699         59.9926       -0.0424984         138.374
0.668                   -4.40225          105.79          -38.564         58.2172          -38.564         58.2165       -0.0430507         138.276
0.669                   -4.59662         103.184         -38.4593         56.4185         -38.4593         56.4179       -0.0436141         138.178
0.67                    -4.80305         100.506         -38.3559         54.5979         -38.3559         54.5973       -0.0441888         138.079
0.671                   -5.02221         97.7539         -38.2543          52.756         -38.2543         52.7554        -0.044775          137.98
0.672                    -5.2548         94.9227         -38.1547         50.8934         -38.1547         50.8929       -0.0453732          137.88
0.673                   -5.50154         92.0081         -38.0572         49.0112         -38.0573         49.0107       -0.0459835          137.78
0.674                   -5.76317         89.0048         -37.9623         47.1103         -37.9623         47.1099       -0.0466064          137.68
0.675                   -6.04043         85.9069         -37.8701          45.192         -37.8702         45.1916       -0.0472421         137.578
0.676                   -6.33407         82.7077          -37.781         43.2577          -37.781         43.2573        -0.047891         137.476
0.677                   -6.64483         79.3995          -37.695         41.3087          -37.695         41.3085       -0.0485533         137.374
0.678                   -6.97341         75.9734         -37.6124         39.3468         -37.6124         39.3466       -0.0492293         137.271
0.679                   -7.32047          72.419         -37.5334         37.3737         -37.5335         37.3736       -0.0499193         137.168
0.68                    -7.68656         68.7243         -37.4582         35.3913         -37.4582         35.3913       -0.0506236         137.064
0.681                   -8.07213         64.8752         -37.3869         33.4015         -37.3869         33.4016       -0.0513425         136.959
0.682                   -8.47742         60.8553         -37.3195         31.4064         -37.3196         31.4065       -0.0520762         136.854
0.683                   -8.90237         56.6456         -37.2563         29.4081         -37.2564         29.4083       -0.0528249         136.749
0.684                   -9.34655         52.2239         -37.1973         27.4088         -37.1973         27.4091       -0.0535889         136.642
0.685                   -9.80898         47.5647         -37.1425         25.4106         -37.1425          25.411       -0.0543685         136.536
0.686                   -10.2879         42.6391         -37.0918         23.4159         -37.0919         23.4163       -0.0551637         136.428
0.687                   -10.7805         37.4148         -37.0453         21.4267         -37.0454         21.4272        -0.055975          136.32
0.688                   -11.2827         31.8569          -37.003         19.4453          -37.003         19.4458       -0.0568024         136.211
0.689                   -11.7886         25.9295         -36.9647         17.4737         -36.9647         17.4743       -0.0576462         136.102
0.69                    -12.2901         19.5985         -36.9303         15.5141         -36.9304         15.5147       -0.0585067         135.992
0.691                   -12.7767          12.836         -36.8998         13.5683         -36.8998          13.569       -0.0593841         135.881
0.692                   -13.2353         5.62782         -36.8728         11.6384         -36.8729          11.639       -0.0602787          135.77
0.693                   -13.6502        -2.01911         -36.8494         9.72591         -36.8494         9.72659       -0.0611908         135.658
0.694                   -14.0046        -10.0671         -36.8292         7.83262         -36.8292          7.8333       -0.0621207         135.545
0.695                   -14.2823        -18.4417         -36.8121         5.95999         -36.8121         5.96066       -0.0630688         135.431
0.696                   -14.4698        -27.0308         -36.7979         4.10938         -36.7979         4.11005       -0.0640355         135.317