! TOUCHSTONE file generated by CST MICROWAVE STUDIO
! Date and time: Sat Oct 24 10:46:18 2020
! Project name: Scenario_1_Planar_Body_Tissue_Center.cst
! Parameters = {hfat=3; hmuscle=50; hskin=1.5; hgap=25; Wtissue=700; Ltissue=700; L_HA=400; MT=2.54; Rad_Dielectric=30; Rad_Lower=7.3; Rad_Upper=30; a_HA=580; a_WG=246; b_HA=500; b_WG=121; c_HA=0; c_WG=187; d_feed=85; dx1=588.68; h_feed=15; h_lower=18; h_upper=40}
! Header version: 2018
! Port assignment regex: !\s*Touchstone port\s*([0-9]+)\s*=\s*(CST MWS port|CST DS port)\s*([0-9]+|Zmin|Zmax)\s*\(\"(.*)\"\)(\s*mode\s*([0-9]+))?.*
! Touchstone port assignment:
! Touchstone port 1 = CST MWS port 1 ("")
! Touchstone port 2 = CST MWS port 2 ("")
# GHz S DB R 50
0.5                    -0.127369         -122.47         -60.0191        -82.7321         -60.0186        -82.7328      -0.00748661          151.15
0.501                  -0.122278        -122.886         -59.8981          -84.27         -59.8974        -84.2809      -0.00754844         151.085
0.502                  -0.117347        -123.304         -59.7764        -85.8229         -59.7755         -85.844      -0.00761082          151.02
0.503                  -0.112578        -123.725         -59.6539        -87.3907         -59.6527         -87.422      -0.00767374         150.955
0.504                  -0.107974        -124.148         -59.5306        -88.9736         -59.5293         -89.015      -0.00773723         150.889
0.505                  -0.103539        -124.574         -59.4066        -90.5716          -59.405        -90.6231      -0.00780129         150.824
0.506                 -0.0992753        -125.003         -59.2818        -92.1849         -59.2801        -92.2464      -0.00786595         150.759
0.507                 -0.0951862        -125.434         -59.1563        -93.8135         -59.1545        -93.8849       -0.0079312         150.693
0.508                 -0.0912749        -125.869         -59.0302        -95.4574         -59.0282        -95.5386      -0.00799706         150.628
0.509                 -0.0875449        -126.305         -58.9035        -97.1167         -58.9013        -97.2076      -0.00806355         150.562
0.51                  -0.0839996        -126.745         -58.7761        -98.7914         -58.7739        -98.8919      -0.00813067         150.496
0.511                 -0.0806426        -127.187         -58.6482        -100.482         -58.6459        -100.592      -0.00819845          150.43
0.512                 -0.0774775        -127.633         -58.5197        -102.187         -58.5173        -102.307      -0.00826688         150.364
0.513                  -0.074508        -128.081         -58.3908        -103.908         -58.3883        -104.037        -0.008336         150.298
0.514                 -0.0717381        -128.532         -58.2613        -105.645         -58.2589        -105.782       -0.0084058         150.232
0.515                 -0.0691717        -128.986         -58.1315        -107.396          -58.129        -107.543       -0.0084763         150.166
0.516                 -0.0668129        -129.444         -58.0013        -109.164         -57.9988        -109.319      -0.00854752           150.1
0.517                  -0.064666        -129.904         -57.8707        -110.946         -57.8683         -111.11      -0.00861947         150.033
0.518                 -0.0627353        -130.367         -57.7399        -112.743         -57.7375        -112.916      -0.00869216         149.967
0.519                 -0.0610253        -130.834         -57.6088        -114.556         -57.6065        -114.737      -0.00876561           149.9
0.52                  -0.0595407        -131.303         -57.4775        -116.384         -57.4753        -116.572      -0.00883982         149.834
0.521                 -0.0582863        -131.776         -57.3461        -118.226          -57.344        -118.422      -0.00891483         149.767
0.522                 -0.0572671        -132.252         -57.2146        -120.083         -57.2126        -120.287      -0.00899063           149.7
0.523                 -0.0564881        -132.732          -57.083        -121.954         -57.0812        -122.165      -0.00906725         149.633
0.524                 -0.0559548        -133.215         -56.9514         -123.84         -56.9498        -124.058      -0.00914469         149.566
0.525                 -0.0556726        -133.701         -56.8199        -125.739         -56.8185        -125.964      -0.00922298         149.499
0.526                 -0.0556472        -134.191         -56.6884        -127.653         -56.6873        -127.884      -0.00930212         149.432
0.527                 -0.0558846        -134.684         -56.5572        -129.579         -56.5563        -129.817      -0.00938214         149.365
0.528                 -0.0563907        -135.181         -56.4261        -131.519         -56.4255        -131.763      -0.00946305         149.298
0.529                 -0.0571721        -135.681         -56.2952        -133.472          -56.295        -133.721      -0.00954486          149.23
0.53                  -0.0582352        -136.186         -56.1647        -135.437         -56.1648        -135.692      -0.00962759         149.162
0.531                  -0.059587        -136.694         -56.0345        -137.415          -56.035        -137.674      -0.00971125         149.095
0.532                 -0.0612344        -137.205         -55.9047        -139.404         -55.9056        -139.668      -0.00979587         149.027
0.533                 -0.0631849        -137.721         -55.7754        -141.404         -55.7767        -141.672      -0.00988146         148.959
0.534                 -0.0654462         -138.24         -55.6465        -143.415         -55.6482        -143.687      -0.00996803         148.891
0.535                 -0.0680262        -138.764         -55.5182        -145.437         -55.5203        -145.712       -0.0100556         148.823
0.536                 -0.0709332        -139.291         -55.3904        -147.468          -55.393        -147.747       -0.0101442         148.755
0.537                  -0.074176        -139.823         -55.2632        -149.509         -55.2664         -149.79       -0.0102338         148.687
0.538                 -0.0777634        -140.359         -55.1367        -151.559         -55.1403        -151.842       -0.0103245         148.619
0.539                  -0.081705        -140.899         -55.0109        -153.616          -55.015        -153.902       -0.0104162          148.55
0.54                  -0.0860105        -141.443         -54.8857        -155.682         -54.8903        -155.969       -0.0105091         148.481
0.541                 -0.0906901        -141.992         -54.7613        -157.755         -54.7664        -158.043        -0.010603         148.413
0.542                 -0.0957546        -142.545         -54.6376        -159.834         -54.6433        -160.123       -0.0106981         148.344
0.543                  -0.101215        -143.102         -54.5148         -161.92         -54.5209        -162.209       -0.0107943         148.275
0.544                  -0.107083        -143.664         -54.3926         -164.01         -54.3994        -164.299       -0.0108916         148.206
0.545                  -0.113371        -144.231         -54.2713        -166.106         -54.2786        -166.394       -0.0109902         148.137
0.546                  -0.120092        -144.803         -54.1508        -168.206         -54.1586        -168.493       -0.0110899         148.068
0.547                  -0.127259        -145.379         -54.0311        -170.309         -54.0393        -170.594       -0.0111909         147.998
0.548                  -0.134885        -145.961         -53.9121        -172.414         -53.9209        -172.698       -0.0112931         147.929
0.549                  -0.142987        -146.547          -53.794        -174.522         -53.8033        -174.804       -0.0113966          147.86
0.55                   -0.151578        -147.139         -53.6766        -176.632         -53.6864        -176.912       -0.0115013          147.79
0.551                  -0.160676        -147.735           -53.56        -178.743         -53.5702        -179.019       -0.0116073          147.72
0.552                  -0.170297        -148.337         -53.4441         179.146         -53.4548         178.873       -0.0117147          147.65
0.553                  -0.180459        -148.944         -53.3289         177.035         -53.3401         176.766       -0.0118234          147.58
0.554                  -0.191181        -149.557         -53.2144         174.925          -53.226          174.66       -0.0119335          147.51
0.555                  -0.202482        -150.175         -53.1006         172.817         -53.1125         172.555       -0.0120449          147.44
0.556                  -0.214384        -150.799         -52.9873          170.71         -52.9997         170.453       -0.0121578         147.369
0.557                  -0.226907        -151.428         -52.8746         168.606         -52.8873         168.354        -0.012272         147.299
0.558                  -0.240076        -152.064         -52.7624         166.505         -52.7754         166.257       -0.0123878         147.228
0.559                  -0.253913        -152.705         -52.6507         164.407          -52.664         164.165        -0.012505         147.157
0.56                   -0.268445        -153.352         -52.5394         162.313          -52.553         162.077       -0.0126237         147.087
0.561                  -0.283699        -154.006         -52.4284         160.224         -52.4422         159.993       -0.0127439         147.016
0.562                  -0.299702        -154.665         -52.3177         158.139         -52.3317         157.914       -0.0128657         146.944
0.563                  -0.316485        -155.331         -52.2072         156.059         -52.2214          155.84        -0.012989         146.873
0.564                   -0.33408        -156.004         -52.0969         153.985         -52.1113         153.772       -0.0131139         146.802
0.565                  -0.352519        -156.683         -51.9867         151.916         -52.0012          151.71       -0.0132405          146.73
0.566                  -0.371839        -157.369         -51.8764         149.854          -51.891         149.654       -0.0133687         146.659
0.567                  -0.392077        -158.061         -51.7662         147.798         -51.7808         147.605       -0.0134985         146.587
0.568                  -0.413271        -158.761         -51.6558         145.748         -51.6704         145.562       -0.0136301         146.515
0.569                  -0.435465        -159.467         -51.5452         143.705         -51.5598         143.525       -0.0137634         146.443
0.57                   -0.458702        -160.181         -51.4343         141.669         -51.4489         141.496       -0.0138984         146.371
0.571                  -0.483029        -160.901          -51.323         139.639         -51.3376         139.473       -0.0140352         146.298
0.572                  -0.508496         -161.63         -51.2114         137.617         -51.2258         137.457       -0.0141738         146.226
0.573                  -0.535157        -162.365         -51.0992         135.601         -51.1135         135.449       -0.0143143         146.153
0.574                  -0.563066        -163.108         -50.9864         133.593         -51.0006         133.447       -0.0144566          146.08
0.575                  -0.592283        -163.859         -50.8729         131.591         -50.8869         131.452       -0.0146008         146.007
0.576                  -0.622872        -164.617         -50.7587         129.596         -50.7725         129.464       -0.0147469         145.934
0.577                  -0.654899        -165.383         -50.6437         127.608         -50.6573         127.482        -0.014895         145.861
0.578                  -0.688435        -166.157         -50.5278         125.626         -50.5411         125.507        -0.015045         145.788
0.579                  -0.723555        -166.938          -50.411          123.65          -50.424         123.538       -0.0151971         145.714
0.58                    -0.76034        -167.728          -50.293         121.681         -50.3057         121.575       -0.0153512          145.64
0.581                  -0.798875        -168.526          -50.174         119.718         -50.1864         119.618       -0.0155074         145.567
0.582                  -0.839249        -169.331         -50.0538          117.76         -50.0658         117.666       -0.0156657         145.493
0.583                  -0.881559        -170.145         -49.9323         115.807          -49.944          115.72       -0.0158262         145.418
0.584                  -0.925907        -170.967         -49.8096         113.859         -49.8208         113.777       -0.0159888         145.344
0.585                    -0.9724        -171.796         -49.6854         111.915         -49.6962          111.84       -0.0161536          145.27
0.586                   -1.02115        -172.633         -49.5598         109.976         -49.5702         109.906       -0.0163207         145.195
0.587                   -1.07229        -173.478         -49.4327          108.04         -49.4426         107.975         -0.01649          145.12
0.588                   -1.12593        -174.331          -49.304         106.106         -49.3135         106.047       -0.0166617         145.045
0.589                   -1.18223        -175.191         -49.1738         104.175         -49.1828         104.121       -0.0168357          144.97
0.59                    -1.24131        -176.058         -49.0418         102.246         -49.0503         102.197       -0.0170121         144.895
0.591                   -1.30334        -176.931         -48.9082         100.318         -48.9162         100.274       -0.0171909         144.819
0.592                   -1.36848        -177.812         -48.7729          98.391         -48.7803          98.351       -0.0173722         144.744
0.593                   -1.43689        -178.698         -48.6357         96.4634         -48.6427         96.4277        -0.017556         144.668
0.594                   -1.50877        -179.589         -48.4968         94.5348         -48.5032         94.5032       -0.0177424         144.592
0.595                   -1.58428         179.514          -48.356         92.6044         -48.3619         92.5767       -0.0179313         144.516
0.596                   -1.66365         178.614         -48.2133         90.6714         -48.2187         90.6474       -0.0181229         144.439
0.597                   -1.74706         177.711         -48.0688          88.735         -48.0736         88.7144       -0.0183171         144.363
0.598                   -1.83474         176.805         -47.9224         86.7943         -47.9267         86.7769       -0.0185141         144.286
0.599                   -1.92691         175.899         -47.7741         84.8483         -47.7779         84.8339       -0.0187138         144.209
0.6                      -2.0238         174.992          -47.624          82.896         -47.6272         82.8843       -0.0189162         144.132
0.601                   -2.12564         174.088          -47.472         80.9365         -47.4746         80.9274       -0.0191216         144.054
0.602                   -2.23269         173.188         -47.3181         78.9687         -47.3202         78.9618       -0.0193298         143.977
0.603                   -2.34518         172.294         -47.1625         76.9915          -47.164         76.9867        -0.019541         143.899
0.604                   -2.46336         171.407         -47.0051         75.0038         -47.0061         75.0008       -0.0197551         143.821
0.605                   -2.58745         170.532          -46.846         73.0046         -46.8465         73.0031       -0.0199723         143.743
0.606                   -2.71771          169.67         -46.6853         70.9925         -46.6853         70.9924       -0.0201925         143.665
0.607                   -2.85433         168.825          -46.523         68.9665         -46.5226         68.9674       -0.0204159         143.586
0.608                   -2.99752         168.002         -46.3594         66.9253         -46.3584         66.9271       -0.0206424         143.508
0.609                   -3.14744         167.203         -46.1944         64.8677         -46.1929         64.8701       -0.0208722         143.429
0.61                     -3.3042         166.434         -46.0282         62.7926         -46.0263         62.7954       -0.0211053          143.35
0.611                    -3.4679           165.7          -45.861         60.6987         -45.8586         60.7016       -0.0213417          143.27
0.612                   -3.63852         165.007         -45.6929         58.5848         -45.6902         58.5877       -0.0215815         143.191
0.613                   -3.81599          164.36         -45.5241         56.4498          -45.521         56.4524       -0.0218247         143.111
0.614                   -4.00012         163.767         -45.3549         54.2926         -45.3515         54.2947       -0.0220715         143.031
0.615                    -4.1906         163.235         -45.1855         52.1121         -45.1817         52.1135       -0.0223218         142.951
0.616                   -4.38696         162.772         -45.0161         49.9073          -45.012         49.9079       -0.0225757          142.87
0.617                   -4.58856         162.385         -44.8471         47.6774         -44.8427         47.6769       -0.0228333         142.789
0.618                   -4.79454         162.083         -44.6786         45.4216          -44.674         45.4199       -0.0230946         142.708
0.619                    -5.0038         161.874         -44.5111         43.1393         -44.5063         43.1362       -0.0233597         142.627
0.62                    -5.21497         161.766         -44.3449         40.8299           -44.34         40.8254       -0.0236287         142.546
0.621                   -5.42639         161.766         -44.1804         38.4932         -44.1753         38.4872       -0.0239016         142.464
0.622                    -5.6361         161.881          -44.018         36.1292         -44.0128         36.1216       -0.0241785         142.382
0.623                   -5.84182         162.116          -43.858         33.7381         -43.8527         33.7288       -0.0244594           142.3
0.624                   -6.04099         162.473         -43.7009         31.3202         -43.6956         31.3092       -0.0247445         142.218
0.625                    -6.2308         162.952          -43.547         28.8763         -43.5418         28.8636       -0.0250338         142.135
0.626                   -6.40826          163.55         -43.3969         26.4074         -43.3918         26.3931       -0.0253273         142.052
0.627                   -6.57033         164.259          -43.251          23.915         -43.2459          23.899       -0.0256251         141.969
0.628                   -6.71404         165.069         -43.1096         21.4006         -43.1047         21.3831       -0.0259273         141.885
0.629                   -6.83662         165.964         -42.9732         18.8664         -42.9685         18.8474        -0.026234         141.802
0.63                    -6.93575         166.924         -42.8421         16.3146         -42.8376         16.2944       -0.0265453         141.718
0.631                   -7.00963         167.926         -42.7167         13.7481         -42.7124         13.7267       -0.0268612         141.633
0.632                   -7.05717         168.946         -42.5973         11.1698         -42.5933         11.1474       -0.0271818         141.549
0.633                   -7.07806         169.956         -42.4842         8.58292         -42.4804         8.55973       -0.0275072         141.464
0.634                    -7.0728         170.932         -42.3774         5.99112          -42.374         5.96733       -0.0278374         141.379
0.635                   -7.04262         171.847         -42.2773         3.39807         -42.2741         3.37389       -0.0281726         141.294
0.636                   -6.98941          172.68         -42.1838         0.80766          -42.181        0.783306       -0.0285127         141.208
0.637                   -6.91559         173.413          -42.097        -1.77617         -42.0945        -1.80048       -0.0288581         141.122
0.638                   -6.82391         174.031         -42.0168        -4.34942         -42.0146         -4.3735       -0.0292086         141.036
0.639                   -6.71729         174.523         -41.9432        -6.90817         -41.9413        -6.93181       -0.0295643         140.949
0.64                     -6.5987         174.883         -41.8758        -9.44858         -41.8742        -9.47159       -0.0299255         140.862
0.641                     -6.471         175.108         -41.8145         -11.967         -41.8131        -11.9892       -0.0302921         140.775
0.642                   -6.33687         175.198         -41.7588          -14.46         -41.7578        -14.4812       -0.0306642         140.687
0.643                   -6.19874         175.155         -41.7085        -16.9243         -41.7077        -16.9446        -0.031042         140.599
0.644                   -6.05875         174.985         -41.6631        -19.3573         -41.6626        -19.3763       -0.0314255         140.511
0.645                   -5.91876         174.692         -41.6222        -21.7563         -41.6218        -21.7741       -0.0318149         140.423
0.646                   -5.78036         174.283         -41.5852        -24.1192          -41.585        -24.1357       -0.0322101         140.334
0.647                   -5.64483         173.765         -41.5516        -26.4444         -41.5515        -26.4596       -0.0326114         140.245
0.648                   -5.51325         173.145         -41.5208        -28.7306         -41.5209        -28.7444       -0.0330187         140.155
0.649                   -5.38646          172.43         -41.4924        -30.9768         -41.4926        -30.9892       -0.0334323         140.065
0.65                    -5.26512         171.628         -41.4657        -33.1825         -41.4659        -33.1936       -0.0338522         139.975
0.651                   -5.14973         170.743         -41.4402        -35.3475         -41.4405        -35.3574       -0.0342784         139.885
0.652                   -5.04066         169.784         -41.4153        -37.4721         -41.4157        -37.4808       -0.0347112         139.794
0.653                   -4.93817         168.754         -41.3907        -39.5569         -41.3911        -39.5644       -0.0351505         139.702
0.654                   -4.84243         167.659         -41.3656        -41.6027         -41.3661        -41.6091       -0.0355966         139.611
0.655                   -4.75355         166.504         -41.3397        -43.6106         -41.3402         -43.616       -0.0360494         139.519
0.656                   -4.67155         165.292         -41.3126        -45.5819         -41.3131        -45.5864       -0.0365092         139.426
0.657                   -4.59645         164.028         -41.2838        -47.5185         -41.2842        -47.5221        -0.036976         139.333
0.658                   -4.52821         162.714         -41.2529        -49.4219         -41.2533        -49.4248       -0.0374499          139.24
0.659                   -4.46679         161.353         -41.2196        -51.2942         -41.2199        -51.2964       -0.0379309         139.146
0.66                    -4.41211         159.948         -41.1835        -53.1374         -41.1839        -53.1391       -0.0384193         139.052
0.661                    -4.3641           158.5         -41.1444        -54.9539         -41.1447         -54.955       -0.0389152         138.958
0.662                   -4.32269         157.011         -41.1021        -56.7459         -41.1024        -56.7465       -0.0394185         138.863
0.663                    -4.2878         155.483         -41.0562        -58.5157         -41.0565         -58.516       -0.0399295         138.768
0.664                   -4.25936         153.916         -41.0067        -60.2658          -41.007        -60.2657       -0.0404482         138.672
0.665                   -4.23731         152.311         -40.9534        -61.9986         -40.9536        -61.9983       -0.0409747         138.576
0.666                   -4.22159         150.668         -40.8962        -63.7166         -40.8964        -63.7162       -0.0415092         138.479
0.667                   -4.21216         148.989         -40.8349        -65.4224         -40.8351        -65.4217       -0.0420517         138.382
0.668                   -4.20901         147.273         -40.7696        -67.1183         -40.7697        -67.1175       -0.0426024         138.284
0.669                   -4.21212          145.52         -40.7001        -68.8069         -40.7002         -68.806       -0.0431614         138.186
0.67                     -4.2215         143.729         -40.6266        -70.4905         -40.6266        -70.4895       -0.0437289         138.088
0.671                   -4.23718           141.9         -40.5489        -72.1715          -40.549        -72.1705       -0.0443049         137.989
0.672                   -4.25919         140.033         -40.4672        -73.8523         -40.4672        -73.8512       -0.0448899         137.889
0.673                   -4.28761         138.127         -40.3814        -75.5351         -40.3815        -75.5341       -0.0454839         137.789
0.674                   -4.32251          136.18         -40.2918        -77.2222         -40.2919        -77.2212       -0.0460873         137.689
0.675                   -4.36401         134.192         -40.1984        -78.9158         -40.1985        -78.9147       -0.0467006         137.588
0.676                   -4.41223         132.161         -40.1014        -80.6179         -40.1014        -80.6168       -0.0473244         137.486
0.677                   -4.46732         130.086         -40.0009        -82.3305         -40.0009        -82.3295       -0.0479593         137.384
0.678                   -4.52947         127.965         -39.8971        -84.0555         -39.8971        -84.0545       -0.0486064         137.281
0.679                   -4.59885         125.796         -39.7901        -85.7949         -39.7901        -85.7939       -0.0492666         137.178
0.68                    -4.67571         123.578         -39.6803        -87.5502         -39.6803        -87.5492       -0.0499411         137.074
0.681                   -4.76029         121.309         -39.5677        -89.3232         -39.5677        -89.3222       -0.0506312         136.969
0.682                   -4.85287         118.985         -39.4528        -91.1153         -39.4528        -91.1143       -0.0513379         136.864
0.683                   -4.95374         116.606         -39.3357        -92.9279         -39.3357         -92.927       -0.0520619         136.758
0.684                   -5.06323         114.167         -39.2167        -94.7623         -39.2167        -94.7614       -0.0528036         136.652
0.685                    -5.1817         111.667         -39.0961        -96.6196         -39.0962        -96.6188        -0.053563         136.545
0.686                   -5.30954         109.102         -38.9743        -98.5009         -38.9743           -98.5       -0.0543396         136.438
0.687                   -5.44714         106.469         -38.8515        -100.407         -38.8515        -100.406       -0.0551329         136.329
0.688                   -5.59494         103.763         -38.7281        -102.338         -38.7281        -102.337       -0.0559424         136.221
0.689                    -5.7534         100.982         -38.6044        -104.296         -38.6044        -104.295       -0.0567678         136.111
0.69                    -5.92298         98.1205         -38.4808        -106.279         -38.4808        -106.278       -0.0576088         136.001
0.691                   -6.10419         95.1739         -38.3577        -108.289         -38.3577        -108.288       -0.0584657          135.89
0.692                   -6.29752         92.1371         -38.2353        -110.326         -38.2353        -110.325       -0.0593388         135.779
0.693                   -6.50348         89.0042         -38.1141        -112.388         -38.1141        -112.387       -0.0602287         135.667
0.694                   -6.72258         85.7688         -37.9943        -114.476         -37.9943        -114.475        -0.061136         135.554
0.695                    -6.9553         82.4238         -37.8765        -116.589         -37.8765        -116.588       -0.0620616          135.44
0.696                    -7.2021         78.9613         -37.7609        -118.726         -37.7609        -118.725       -0.0630061         135.326