! TOUCHSTONE file generated by CST MICROWAVE STUDIO
! Date and time: Sat Oct 24 10:47:02 2020
! Project name: Scenario_1_Planar_Body_Tissue_Center.cst
! Parameters = {hfat=3; hmuscle=50; hskin=1.5; hgap=25; Wtissue=700; Ltissue=700; L_HA=400; MT=2.54; Rad_Dielectric=30; Rad_Lower=7.3; Rad_Upper=30; a_HA=580; a_WG=246; b_HA=500; b_WG=121; c_HA=0; c_WG=187; d_feed=85; dx1=692.6; h_feed=15; h_lower=18; h_upper=40}
! Header version: 2018
! Port assignment regex: !\s*Touchstone port\s*([0-9]+)\s*=\s*(CST MWS port|CST DS port)\s*([0-9]+|Zmin|Zmax)\s*\(\"(.*)\"\)(\s*mode\s*([0-9]+))?.*
! Touchstone port assignment:
! Touchstone port 1 = CST MWS port 1 ("")
! Touchstone port 2 = CST MWS port 2 ("")
# GHz S DB R 50
0.5                    -0.211193        -121.506         -60.7273        -169.647         -60.7275        -169.645      -0.00778866         151.142
0.501                  -0.211508        -121.916         -60.7072        -172.004         -60.7073        -172.006      -0.00785136         151.077
0.502                  -0.211868        -122.329         -60.6888        -174.308         -60.6888        -174.313      -0.00791445         151.012
0.503                  -0.212276        -122.746         -60.6716        -176.558         -60.6715        -176.566      -0.00797797         150.946
0.504                  -0.212734        -123.165         -60.6548        -178.756         -60.6546        -178.767      -0.00804191         150.881
0.505                  -0.213247        -123.588         -60.6378         179.097         -60.6377         179.085       -0.0081063         150.815
0.506                  -0.213817        -124.014         -60.6203         177.002         -60.6202         176.988      -0.00817113          150.75
0.507                  -0.214448        -124.443         -60.6016         174.956         -60.6015         174.941      -0.00823643         150.684
0.508                  -0.215145        -124.876         -60.5813         172.959         -60.5813         172.943      -0.00830221         150.619
0.509                  -0.215912        -125.312         -60.5591         171.008         -60.5591         170.991      -0.00836847         150.553
0.51                   -0.216752        -125.751         -60.5345         169.103         -60.5346         169.085      -0.00843524         150.487
0.511                  -0.217671        -126.194         -60.5072         167.241         -60.5074         167.223      -0.00850253         150.421
0.512                  -0.218673        -126.641          -60.477         165.421         -60.4772         165.403      -0.00857034         150.355
0.513                  -0.219764        -127.091         -60.4435         163.641         -60.4438         163.624       -0.0086387         150.289
0.514                  -0.220949        -127.545         -60.4065         161.899         -60.4069         161.883      -0.00870761         150.223
0.515                  -0.222234        -128.002         -60.3658         160.194         -60.3662         160.178       -0.0087771         150.156
0.516                  -0.223625        -128.464         -60.3212         158.524         -60.3217         158.509      -0.00884717          150.09
0.517                   -0.22513         -128.93         -60.2725         156.887         -60.2731         156.872      -0.00891783         150.024
0.518                  -0.226754        -129.399         -60.2197         155.282         -60.2203         155.268      -0.00898912         149.957
0.519                  -0.228507        -129.873         -60.1625         153.706         -60.1632         153.693      -0.00906103          149.89
0.52                   -0.230395        -130.351         -60.1009         152.158         -60.1016         152.146      -0.00913358         149.824
0.521                  -0.232427        -130.833         -60.0347         150.637         -60.0354         150.626       -0.0092068         149.757
0.522                  -0.234613         -131.32         -59.9639          149.14         -59.9647          149.13      -0.00928069          149.69
0.523                  -0.236963        -131.811         -59.8884         147.667         -59.8892         147.658      -0.00935527         149.623
0.524                  -0.239486        -132.307         -59.8082         146.216         -59.8089         146.208      -0.00943056         149.556
0.525                  -0.242195        -132.807         -59.7231         144.784         -59.7238         144.778      -0.00950658         149.489
0.526                  -0.245102        -133.312         -59.6331         143.372         -59.6338         143.367      -0.00958334         149.421
0.527                  -0.248219        -133.823         -59.5383         141.978         -59.5389         141.973      -0.00966086         149.354
0.528                  -0.251561        -134.338         -59.4384         140.599         -59.4391         140.596      -0.00973916         149.287
0.529                  -0.255142        -134.858         -59.3336         139.235         -59.3342         139.233      -0.00981826         149.219
0.53                   -0.258979        -135.384         -59.2237         137.885         -59.2244         137.883      -0.00989817         149.151
0.531                   -0.26309        -135.916         -59.1089         136.546         -59.1094         136.546      -0.00997893         149.084
0.532                  -0.267493        -136.452         -58.9889         135.219         -58.9894         135.219       -0.0100605         149.016
0.533                  -0.272209        -136.995         -58.8638           133.9         -58.8643         133.902        -0.010143         148.948
0.534                   -0.27726        -137.544         -58.7337          132.59         -58.7341         132.593       -0.0102264          148.88
0.535                  -0.282669        -138.098         -58.5983         131.287         -58.5987         131.291       -0.0103107         148.812
0.536                  -0.288463        -138.659         -58.4579          129.99         -58.4582         129.994        -0.010396         148.743
0.537                   -0.29467        -139.226         -58.3122         128.697         -58.3125         128.702       -0.0104822         148.675
0.538                   -0.30132          -139.8         -58.1614         127.407         -58.1616         127.413       -0.0105694         148.607
0.539                  -0.308446         -140.38         -58.0053         126.119         -58.0055         126.125       -0.0106577         148.538
0.54                   -0.316085        -140.967          -57.844         124.831         -57.8442         124.838       -0.0107469         148.469
0.541                  -0.324276        -141.562         -57.6775         123.542         -57.6776          123.55       -0.0108373         148.401
0.542                  -0.333061        -142.163         -57.5057         122.251         -57.5057         122.259       -0.0109288         148.332
0.543                  -0.342488        -142.772         -57.3286         120.957         -57.3285         120.965       -0.0110214         148.263
0.544                  -0.352607        -143.389         -57.1461         119.657          -57.146         119.666       -0.0111151         148.194
0.545                  -0.363474        -144.014         -56.9583         118.352         -56.9582         118.361       -0.0112101         148.124
0.546                  -0.375151        -144.647         -56.7652         117.038          -56.765         117.047       -0.0113063         148.055
0.547                  -0.387704        -145.288         -56.5667         115.715         -56.5664         115.725       -0.0114038         147.986
0.548                  -0.401207        -145.938         -56.3627          114.38         -56.3624          114.39       -0.0115026         147.916
0.549                  -0.415741        -146.597         -56.1534         113.033          -56.153         113.044       -0.0116027         147.846
0.55                   -0.431393        -147.264         -55.9386         111.672         -55.9382         111.682       -0.0117042         147.776
0.551                  -0.448262        -147.941         -55.7184         110.294         -55.7179         110.305       -0.0118072         147.707
0.552                  -0.466455        -148.627         -55.4927         108.898         -55.4921         108.909       -0.0119117         147.636
0.553                  -0.486088        -149.322         -55.2615         107.482         -55.2609         107.493       -0.0120177         147.566
0.554                  -0.507292        -150.027         -55.0248         106.044         -55.0242         106.055       -0.0121253         147.496
0.555                  -0.530208        -150.742         -54.7827         104.581          -54.782         104.592       -0.0122346         147.426
0.556                  -0.554995        -151.467         -54.5351         103.092         -54.5344         103.103       -0.0123456         147.355
0.557                  -0.581824        -152.202         -54.2821         101.574         -54.2814         101.584       -0.0124584         147.284
0.558                  -0.610884        -152.947         -54.0237         100.024         -54.0229         100.034        -0.012573         147.214
0.559                  -0.642384        -153.701           -53.76         98.4394         -53.7592         98.4492       -0.0126896         147.143
0.56                   -0.676552        -154.465          -53.491         96.8178         -53.4901         96.8273       -0.0128082         147.072
0.561                  -0.713638        -155.238         -53.2168         95.1559          -53.216         95.1652       -0.0129289             147
0.562                  -0.753914        -156.019         -52.9376         93.4507         -52.9367         93.4596       -0.0130519         146.929
0.563                  -0.797675        -156.809         -52.6535         91.6986         -52.6526         91.7073       -0.0131771         146.858
0.564                  -0.845243        -157.606         -52.3646         89.8964         -52.3637         89.9046       -0.0133048         146.786
0.565                  -0.896961        -158.408         -52.0713         88.0401         -52.0704          88.048       -0.0134349         146.714
0.566                  -0.953196        -159.215         -51.7738         86.1261         -51.7728         86.1336       -0.0135677         146.643
0.567                   -1.01433        -160.024         -51.4724         84.1502         -51.4714         84.1573       -0.0137033         146.571
0.568                   -1.08078        -160.833         -51.1674         82.1085         -51.1665         82.1151       -0.0138418         146.498
0.569                   -1.15295        -161.638         -50.8595         79.9965         -50.8585         80.0028       -0.0139834         146.426
0.57                    -1.23124        -162.437         -50.5491         77.8102         -50.5482         77.8159       -0.0141281         146.354
0.571                   -1.31605        -163.224         -50.2369          75.545          -50.236         75.5503       -0.0142762         146.281
0.572                   -1.40774        -163.995         -49.9237         73.1968         -49.9227         73.2016       -0.0144278         146.208
0.573                   -1.50658        -164.742         -49.6102         70.7615         -49.6093         70.7659       -0.0145831         146.136
0.574                   -1.61278        -165.459         -49.2975         68.2352         -49.2966         68.2391       -0.0147422         146.063
0.575                   -1.72636        -166.137         -48.9866         65.6145         -48.9857         65.6179       -0.0149053         145.989
0.576                   -1.84718        -166.767         -48.6789         62.8965          -48.678         62.8994       -0.0150724         145.916
0.577                   -1.97482        -167.338         -48.3756         60.0789         -48.3748         60.0815       -0.0152438         145.843
0.578                   -2.10852        -167.839         -48.0783         57.1606         -48.0775         57.1628       -0.0154196         145.769
0.579                   -2.24714        -168.258         -47.7886         54.1415         -47.7878         54.1433       -0.0155999         145.695
0.58                    -2.38907        -168.586         -47.5081         51.0229         -47.5074         51.0242       -0.0157846         145.622
0.581                    -2.5322        -168.811         -47.2386         47.8075          -47.238         47.8085       -0.0159739         145.547
0.582                   -2.67392        -168.926          -46.982            44.5         -46.9814         44.5007       -0.0161677         145.473
0.583                   -2.81113        -168.928         -46.7399          41.107         -46.7394         41.1074       -0.0163659         145.399
0.584                    -2.9404        -168.815          -46.514         37.6367         -46.5136         37.6369       -0.0165685         145.325
0.585                   -3.05813        -168.594         -46.3059         34.0997         -46.3056         34.0997       -0.0167751          145.25
0.586                    -3.1608        -168.276         -46.1169         30.5081         -46.1166         30.5079       -0.0169857         145.175
0.587                   -3.24526         -167.88          -45.948         26.8755         -45.9477         26.8752       -0.0171998           145.1
0.588                   -3.30906        -167.428         -45.7999         23.2168         -45.7997         23.2165       -0.0174171         145.025
0.589                   -3.35064        -166.948          -45.673         19.5477         -45.6729         19.5473       -0.0176371          144.95
0.59                    -3.36954        -166.468         -45.5673         15.8839         -45.5672         15.8836       -0.0178593         144.875
0.591                   -3.36639        -166.017         -45.4824         12.2412         -45.4824          12.241       -0.0180833           144.8
0.592                   -3.34277        -165.621         -45.4176         8.63438         -45.4175         8.63414       -0.0183085         144.724
0.593                   -3.30106          -165.3         -45.3717         5.07696         -45.3717         5.07679       -0.0185345         144.648
0.594                   -3.24415         -165.07         -45.3435         1.58105         -45.3435         1.58094       -0.0187607         144.572
0.595                   -3.17513        -164.943         -45.3313        -1.84311         -45.3314        -1.84314       -0.0189867         144.496
0.596                   -3.09713        -164.923         -45.3336        -5.18719         -45.3337        -5.18714       -0.0192121          144.42
0.597                   -3.01303        -165.011         -45.3485        -8.44482         -45.3486         -8.4447       -0.0194366         144.344
0.598                   -2.92543        -165.205         -45.3743        -11.6115         -45.3744        -11.6113         -0.01966         144.267
0.599                   -2.83655          -165.5         -45.4092        -14.6846         -45.4092        -14.6843       -0.0198822          144.19
0.6                      -2.7482         -165.89         -45.4514        -17.6628         -45.4515        -17.6625       -0.0201031         144.113
0.601                   -2.66183        -166.366         -45.4995        -20.5465         -45.4995        -20.5461       -0.0203227         144.036
0.602                   -2.57853        -166.921         -45.5518        -23.3369         -45.5518        -23.3365       -0.0205412         143.959
0.603                   -2.49911        -167.547          -45.607        -26.0363         -45.6071         -26.036       -0.0207588         143.882
0.604                   -2.42415        -168.237          -45.664        -28.6479          -45.664        -28.6475       -0.0209756         143.804
0.605                   -2.35402        -168.985         -45.7215        -31.1751         -45.7216        -31.1747        -0.021192         143.726
0.606                   -2.28892        -169.784         -45.7786        -33.6218         -45.7787        -33.6215       -0.0214083         143.648
0.607                   -2.22896        -170.628         -45.8346        -35.9924         -45.8346         -35.992       -0.0216247          143.57
0.608                   -2.17416        -171.514         -45.8885        -38.2911         -45.8885        -38.2908       -0.0218417         143.491
0.609                   -2.12448        -172.436         -45.9398        -40.5224         -45.9398        -40.5221       -0.0220596         143.412
0.61                    -2.07981        -173.392          -45.988        -42.6907          -45.988        -42.6904       -0.0222787         143.333
0.611                   -2.04005        -174.379         -46.0325        -44.8004         -46.0325        -44.8002       -0.0224993         143.254
0.612                   -2.00507        -175.394         -46.0731        -46.8558         -46.0731        -46.8556       -0.0227217         143.175
0.613                   -1.97473        -176.435         -46.1093        -48.8609         -46.1093        -48.8607       -0.0229462         143.095
0.614                   -1.94891          -177.5         -46.1409        -50.8198         -46.1409        -50.8196       -0.0231731         143.015
0.615                   -1.92747        -178.588         -46.1678        -52.7363         -46.1678        -52.7362       -0.0234027         142.935
0.616                   -1.91031        -179.698         -46.1897        -54.6141         -46.1897         -54.614       -0.0236351         142.854
0.617                   -1.89731         179.171         -46.2065        -56.4567         -46.2065        -56.4566       -0.0238706         142.774
0.618                   -1.88839         178.019         -46.2182        -58.2674         -46.2182        -58.2674       -0.0241095         142.693
0.619                   -1.88349         176.847         -46.2246        -60.0496         -46.2246        -60.0495       -0.0243517         142.612
0.62                    -1.88253         175.655         -46.2257        -61.8061         -46.2257        -61.8061       -0.0245976          142.53
0.621                   -1.88549         174.443         -46.2215          -63.54         -46.2215          -63.54       -0.0248473         142.449
0.622                   -1.89235         173.212          -46.212        -65.2539          -46.212        -65.2539        -0.025101         142.367
0.623                    -1.9031         171.961         -46.1973        -66.9507         -46.1972        -66.9507       -0.0253587         142.285
0.624                   -1.91776          170.69         -46.1773        -68.6327         -46.1772        -68.6327       -0.0256206         142.202
0.625                   -1.93636         169.398         -46.1521        -70.3023          -46.152        -70.3024       -0.0258869          142.12
0.626                   -1.95896         168.086         -46.1218        -71.9621         -46.1217        -71.9621       -0.0261575         142.037
0.627                   -1.98563         166.753         -46.0864        -73.6141         -46.0863        -73.6141       -0.0264327         141.953
0.628                   -2.01647         165.399          -46.046        -75.2604         -46.0459        -75.2604       -0.0267126          141.87
0.629                   -2.05158         164.023         -46.0007        -76.9032         -46.0007        -76.9033       -0.0269971         141.786
0.63                    -2.09111         162.624         -45.9507        -78.5445         -45.9506        -78.5445       -0.0272865         141.702
0.631                   -2.13521         161.203          -45.896        -80.1861         -45.8959        -80.1861       -0.0275809         141.618
0.632                   -2.18405         159.758         -45.8367        -81.8299         -45.8366        -81.8299       -0.0278802         141.533
0.633                   -2.23784          158.29          -45.773        -83.4777         -45.7729        -83.4777       -0.0281846         141.448
0.634                    -2.2968         156.797          -45.705        -85.1312         -45.7049        -85.1312       -0.0284942         141.363
0.635                   -2.36118         155.278         -45.6328        -86.7921         -45.6328        -86.7921        -0.028809         141.278
0.636                   -2.43126         153.734         -45.5567        -88.4619         -45.5566        -88.4619       -0.0291292         141.192
0.637                   -2.50735         152.165         -45.4768        -90.1423         -45.4767        -90.1423       -0.0294547         141.106
0.638                   -2.58977         150.568         -45.3932        -91.8348         -45.3931        -91.8348       -0.0297858         141.019
0.639                    -2.6789         148.944         -45.3062        -93.5407         -45.3061        -93.5407       -0.0301223         140.933
0.64                    -2.77513         147.294         -45.2159        -95.2614         -45.2158        -95.2615       -0.0304644         140.846
0.641                   -2.87891         145.615         -45.1226        -96.9984         -45.1225        -96.9984       -0.0308119         140.758
0.642                   -2.99069         143.908         -45.0264        -98.7527         -45.0263        -98.7528       -0.0311648         140.671
0.643                     -3.111         142.173         -44.9277        -100.526         -44.9276        -100.526       -0.0315227         140.583
0.644                   -3.24038          140.41         -44.8266        -102.318         -44.8265        -102.318       -0.0318847         140.495
0.645                   -3.37944         138.619         -44.7235        -104.132         -44.7233        -104.132       -0.0322475         140.406
0.646                   -3.52883           136.8         -44.6185        -105.967         -44.6184        -105.967       -0.0325971         140.317
0.647                   -3.68924         134.954          -44.512        -107.824         -44.5119        -107.824       -0.0327445          140.23
0.648                   -3.86143         133.081         -44.4043        -109.704         -44.4042        -109.704        -0.033389         140.134
0.649                   -4.04622         131.182         -44.2956        -111.608         -44.2955        -111.608       -0.0338574         140.046
0.65                     -4.2445         129.258         -44.1864        -113.536         -44.1862        -113.537       -0.0342621         139.956
0.651                    -4.4572         127.311         -44.0768        -115.489         -44.0767        -115.489       -0.0346731         139.866
0.652                   -4.68537         125.342         -43.9673        -117.466         -43.9672        -117.466       -0.0350919         139.775
0.653                   -4.93011         123.353         -43.8582        -119.467          -43.858        -119.467       -0.0355186         139.683
0.654                   -5.19264         121.347         -43.7498        -121.492         -43.7496        -121.493       -0.0359531         139.591
0.655                   -5.47428         119.328         -43.6424        -123.541         -43.6423        -123.542       -0.0363954         139.499
0.656                   -5.77645         117.298         -43.5365        -125.614         -43.5364        -125.614       -0.0368456         139.406
0.657                   -6.10074         115.262         -43.4323        -127.708         -43.4322        -127.709       -0.0373038         139.313
0.658                   -6.44886         113.225         -43.3302        -129.824         -43.3301        -129.824         -0.03777          139.22
0.659                   -6.82273         111.193         -43.2306         -131.96         -43.2304         -131.96       -0.0382445         139.126
0.66                    -7.22449         109.173         -43.1336        -134.114         -43.1335        -134.114       -0.0387274         139.032
0.661                    -7.6565         107.173         -43.0396        -136.285         -43.0395        -136.285       -0.0392188         138.937
0.662                   -8.12149         105.204         -42.9489        -138.471         -42.9489        -138.472       -0.0397188         138.842
0.663                    -8.6225         103.277         -42.8618         -140.67         -42.8617        -140.671       -0.0402278         138.746
0.664                    -9.1631         101.408         -42.7784         -142.88         -42.7783         -142.88       -0.0407458          138.65
0.665                   -9.74737         99.6135         -42.6988        -145.098         -42.6988        -145.099        -0.041273         138.554
0.666                   -10.3802         97.9171         -42.6234        -147.323         -42.6234        -147.323       -0.0418096         138.457
0.667                   -11.0672         96.3476         -42.5521         -149.55         -42.5521        -149.551       -0.0423558          138.36
0.668                   -11.8154         94.9431         -42.4851        -151.779         -42.4851        -151.779       -0.0429118         138.262
0.669                   -12.6329         93.7541         -42.4224        -154.005         -42.4224        -154.006       -0.0434778         138.163
0.67                    -13.5299         92.8504          -42.364        -156.227          -42.364        -156.227       -0.0440541         138.065
0.671                   -14.5187         92.3306         -42.3097        -158.442         -42.3097        -158.442       -0.0446408         137.965
0.672                   -15.6137         92.3387         -42.2597        -160.647         -42.2597        -160.647       -0.0452382         137.866
0.673                   -16.8319         93.0921         -42.2136        -162.839         -42.2136        -162.839       -0.0458466         137.765
0.674                   -18.1898         94.9294         -42.1714        -165.017         -42.1715        -165.017       -0.0464661         137.665
0.675                    -19.696           98.39         -42.1329        -167.177          -42.133        -167.177        -0.047097         137.563
0.676                   -21.3273         104.325         -42.0979        -169.319         -42.0979        -169.319       -0.0477396         137.461
0.677                   -22.9657         113.933          -42.066        -171.439          -42.066        -171.439       -0.0483941         137.359
0.678                   -24.2855          128.21         -42.0371        -173.536         -42.0371        -173.536       -0.0490609         137.256
0.679                   -24.7681         146.016         -42.0108        -175.609         -42.0108        -175.609       -0.0497401         137.153
0.68                    -24.1897         163.083         -41.9868        -177.656         -41.9868        -177.656       -0.0504322         137.048
0.681                   -22.9374         175.922         -41.9649        -179.676         -41.9649        -179.675       -0.0511374         136.944
0.682                   -21.4962        -175.668         -41.9446         178.332         -41.9446         178.333        -0.051856         136.839
0.683                   -20.1137        -170.494         -41.9257         176.369         -41.9257          176.37       -0.0525883         136.733
0.684                   -18.8675        -167.453         -41.9078         174.435         -41.9078         174.436       -0.0533347         136.626
0.685                   -17.7659        -165.806         -41.8906         172.531         -41.8906         172.532       -0.0540955         136.519
0.686                   -16.7957        -165.089         -41.8737         170.657         -41.8737         170.657       -0.0548711         136.412
0.687                   -15.9393        -165.012         -41.8569         168.812         -41.8569         168.813       -0.0556618         136.303
0.688                   -15.1803        -165.387         -41.8399         166.998         -41.8398         166.998       -0.0564681         136.194
0.689                   -14.5043        -166.089         -41.8222         165.212         -41.8222         165.213       -0.0572902         136.085
0.69                    -13.8996        -167.035         -41.8037         163.456         -41.8037         163.456       -0.0581287         135.975
0.691                   -13.3564        -168.163          -41.784         161.728          -41.784         161.728       -0.0589839         135.864
0.692                   -12.8667        -169.431         -41.7629         160.027         -41.7629         160.028       -0.0598562         135.752
0.693                    -12.424        -170.809         -41.7402         158.354         -41.7401         158.354       -0.0607462          135.64
0.694                   -12.0226        -172.273         -41.7155         156.707         -41.7155         156.707       -0.0616542         135.527
0.695                    -11.658        -173.804         -41.6887         155.085         -41.6887         155.085       -0.0625808         135.413
0.696                   -11.3262        -175.391         -41.6596         153.488         -41.6595         153.488       -0.0635264         135.298