! TOUCHSTONE file generated by CST MICROWAVE STUDIO
! Date and time: Sat Oct 24 10:48:16 2020
! Project name: Scenario_1_Planar_Body_Tissue_Center.cst
! Parameters = {hfat=3; hmuscle=50; hskin=1.5; hgap=25; Wtissue=700; Ltissue=700; L_HA=400; MT=2.54; Rad_Dielectric=30; Rad_Lower=7.3; Rad_Upper=30; a_HA=580; a_WG=246; b_HA=500; b_WG=121; c_HA=0; c_WG=187; d_feed=85; dx1=848.48; h_feed=15; h_lower=18; h_upper=40}
! Header version: 2018
! Port assignment regex: !\s*Touchstone port\s*([0-9]+)\s*=\s*(CST MWS port|CST DS port)\s*([0-9]+|Zmin|Zmax)\s*\(\"(.*)\"\)(\s*mode\s*([0-9]+))?.*
! Touchstone port assignment:
! Touchstone port 1 = CST MWS port 1 ("")
! Touchstone port 2 = CST MWS port 2 ("")
# GHz S DB R 50
0.5                   -0.0918228        -122.033         -63.8633         115.721         -63.8633         115.726      -0.00750226         151.126
0.501                 -0.0959671        -122.493         -63.6092         114.292         -63.6097         114.296      -0.00756827         151.061
0.502                  -0.100407        -122.957         -63.3507         112.835         -63.3516         112.838      -0.00763406         150.996
0.503                  -0.105171        -123.425         -63.0878         111.347         -63.0891          111.35      -0.00769955          150.93
0.504                  -0.110293        -123.898         -62.8203         109.828          -62.822         109.829      -0.00776469         150.865
0.505                  -0.115807        -124.374         -62.5483         108.273         -62.5504         108.274       -0.0078294         150.799
0.506                  -0.121754        -124.855         -62.2716         106.682         -62.2741         106.682      -0.00789359         150.734
0.507                  -0.128178        -125.341         -61.9903         105.052         -61.9932         105.051      -0.00795717         150.668
0.508                  -0.135129        -125.831         -61.7044         103.379         -61.7076         103.378      -0.00802004         150.602
0.509                  -0.142663        -126.325         -61.4138         101.661         -61.4173         101.659      -0.00808208         150.536
0.51                   -0.150841        -126.825         -61.1187         99.8955         -61.1225         99.8933      -0.00814319         150.471
0.511                   -0.15973        -127.328          -60.819          98.078         -60.8231         98.0756      -0.00820323         150.405
0.512                  -0.169407        -127.837          -60.515         96.2053         -60.5193         96.2029      -0.00826211         150.338
0.513                  -0.179954         -128.35         -60.2067         94.2736         -60.2113         94.2713      -0.00831974         150.272
0.514                  -0.191465        -128.867         -59.8944         92.2787         -59.8992         92.2766      -0.00837607         150.206
0.515                  -0.204038        -129.389         -59.5783         90.2164         -59.5833         90.2146      -0.00843118          150.14
0.516                  -0.217785        -129.915         -59.2588          88.082          -59.264         88.0807      -0.00848528         150.073
0.517                  -0.232822        -130.444         -58.9363         85.8709         -58.9416         85.8702      -0.00853886         150.006
0.518                  -0.249276        -130.976         -58.6113         83.5781         -58.6168          83.578      -0.00859285          149.94
0.519                  -0.267279        -131.511         -58.2845         81.1985         -58.2901         81.1993       -0.0086488         149.873
0.52                   -0.286966        -132.048         -57.9566         78.7271         -57.9622         78.7289      -0.00870921         149.806
0.521                  -0.308475        -132.585         -57.6284          76.159         -57.6341         76.1617      -0.00877776         149.738
0.522                  -0.331936        -133.121         -57.3011         73.4892         -57.3068         73.4931      -0.00885944         149.671
0.523                  -0.357467        -133.655         -56.9759         70.7133         -56.9816         70.7184      -0.00896009         149.603
0.524                  -0.385161        -134.185         -56.6541         67.8275         -56.6597         67.8338      -0.00908514         149.536
0.525                  -0.415078        -134.708         -56.3372         64.8286         -56.3427         64.8362      -0.00923733         149.468
0.526                  -0.447223        -135.222         -56.0271         61.7146         -56.0325         61.7235      -0.00941431           149.4
0.527                  -0.481531        -135.724         -55.7256         58.4848         -55.7308          58.495       -0.0096079         149.333
0.528                  -0.517845         -136.21         -55.4348         55.1403         -55.4398         55.1517       -0.0098063         149.265
0.529                  -0.555895        -136.679         -55.1568         51.6841         -55.1615         51.6966      -0.00999807         149.198
0.53                   -0.595282        -137.125         -54.8938         48.1215         -54.8983          48.135       -0.0101755          149.13
0.531                  -0.635465        -137.548         -54.6481         44.4605         -54.6522         44.4748       -0.0103356         149.063
0.532                  -0.675762        -137.943         -54.4216         40.7115         -54.4254         40.7264       -0.0104787         148.996
0.533                  -0.715365         -138.31         -54.2163         36.8876         -54.2198         36.9029       -0.0106073         148.928
0.534                  -0.753375         -138.65         -54.0339         33.0045          -54.037         33.0199       -0.0107245          148.86
0.535                  -0.788853        -138.962         -53.8755         29.0797         -53.8782         29.0949       -0.0108331         148.793
0.536                  -0.820893         -139.25         -53.7421         25.1325         -53.7444         25.1473       -0.0109356         148.725
0.537                  -0.848692        -139.519         -53.6338         21.1829         -53.6357          21.197       -0.0110339         148.657
0.538                  -0.871625        -139.774         -53.5505         17.2511         -53.5521         17.2644       -0.0111294         148.589
0.539                  -0.889297        -140.023         -53.4915         13.3568         -53.4928          13.369       -0.0112232          148.52
0.54                   -0.901572         -140.27         -53.4555         9.51811         -53.4566         9.52909       -0.0113161         148.452
0.541                  -0.908572        -140.525         -53.4411         5.75153         -53.4419          5.7612       -0.0114087         148.383
0.542                  -0.910645        -140.792         -53.4464         2.07107         -53.4469         2.07936       -0.0115013         148.315
0.543                  -0.908319        -141.078         -53.4691        -1.51185         -53.4695        -1.50494       -0.0115943         148.246
0.544                  -0.902239        -141.385         -53.5071        -4.98843         -53.5073        -4.98288       -0.0116878         148.177
0.545                  -0.893106        -141.718          -53.558        -8.35251         -53.5581        -8.34826       -0.0117821         148.108
0.546                  -0.881628        -142.077         -53.6197        -11.6003         -53.6197        -11.5973       -0.0118772         148.039
0.547                  -0.868476        -142.463         -53.6898        -14.7302         -53.6897        -14.7283       -0.0119732          147.97
0.548                  -0.854256        -142.876         -53.7663        -17.7425         -53.7663        -17.7416       -0.0120703           147.9
0.549                  -0.839499        -143.314         -53.8475        -20.6389         -53.8474        -20.6388       -0.0121684         147.831
0.55                    -0.82465        -143.778         -53.9314        -23.4223         -53.9313         -23.423       -0.0122676         147.761
0.551                  -0.810073        -144.266         -54.0166        -26.0967         -54.0165        -26.0979       -0.0123679         147.691
0.552                  -0.796057        -144.775         -54.1017        -28.6666         -54.1016        -28.6683       -0.0124693         147.622
0.553                  -0.782826        -145.305         -54.1856        -31.1369         -54.1855         -31.139        -0.012572         147.552
0.554                   -0.77055        -145.853         -54.2671        -33.5131          -54.267        -33.5154       -0.0126758         147.481
0.555                  -0.759351         -146.42         -54.3454        -35.8004         -54.3454        -35.8028       -0.0127808         147.411
0.556                  -0.749317        -147.002         -54.4198        -38.0043         -54.4197        -38.0068        -0.012887         147.341
0.557                  -0.740507          -147.6         -54.4895        -40.1303         -54.4894        -40.1327       -0.0129945          147.27
0.558                  -0.732958        -148.211          -54.554        -42.1835          -54.554        -42.1858       -0.0131032           147.2
0.559                  -0.726694        -148.836         -54.6129         -44.169         -54.6129        -44.1712       -0.0132132         147.129
0.56                   -0.721726        -149.473         -54.6658        -46.0918         -54.6657        -46.0938       -0.0133245         147.058
0.561                  -0.718058        -150.123         -54.7123        -47.9566         -54.7123        -47.9583       -0.0134372         146.987
0.562                  -0.715692        -150.783         -54.7523        -49.7679         -54.7522        -49.7692       -0.0135511         146.916
0.563                  -0.714626        -151.455         -54.7854        -51.5298         -54.7854        -51.5309       -0.0136665         146.845
0.564                  -0.714859        -152.137         -54.8116        -53.2466         -54.8116        -53.2474       -0.0137832         146.773
0.565                  -0.716393        -152.829         -54.8308         -54.922         -54.8307        -54.9225       -0.0139013         146.702
0.566                  -0.719231        -153.532         -54.8427        -56.5599         -54.8426          -56.56       -0.0140209          146.63
0.567                  -0.723381        -154.245         -54.8473        -58.1636         -54.8472        -58.1634       -0.0141419         146.558
0.568                  -0.728853        -154.968         -54.8446        -59.7365         -54.8445        -59.7361       -0.0142644         146.487
0.569                  -0.735665        -155.701         -54.8346        -61.2818         -54.8344        -61.2812       -0.0143885         146.414
0.57                   -0.743839        -156.443         -54.8172        -62.8026          -54.817        -62.8018       -0.0145141         146.342
0.571                  -0.753402        -157.196         -54.7923        -64.3018         -54.7921        -64.3008       -0.0146413          146.27
0.572                  -0.764389        -157.959         -54.7601        -65.7822         -54.7599        -65.7811       -0.0147701         146.197
0.573                  -0.776841        -158.732         -54.7205        -67.2466         -54.7203        -67.2454       -0.0149006         146.125
0.574                  -0.790806        -159.515         -54.6736        -68.6975         -54.6733        -68.6964       -0.0150327         146.052
0.575                  -0.806338        -160.309         -54.6193        -70.1375          -54.619        -70.1365       -0.0151666         145.979
0.576                  -0.823501        -161.113         -54.5578        -71.5692         -54.5575        -71.5683       -0.0153023         145.906
0.577                  -0.842367        -161.928          -54.489        -72.9948         -54.4887        -72.9943       -0.0154397         145.833
0.578                  -0.863016        -162.753          -54.413        -74.4169         -54.4127        -74.4168        -0.015579         145.759
0.579                  -0.885537         -163.59         -54.3299        -75.8378         -54.3296        -75.8381       -0.0157203         145.686
0.58                   -0.910029        -164.438         -54.2397        -77.2598         -54.2395        -77.2607       -0.0158634         145.612
0.581                  -0.936603        -165.296         -54.1425        -78.6851         -54.1423        -78.6868       -0.0160086         145.538
0.582                  -0.965378        -166.166         -54.0384        -80.1161         -54.0382        -80.1186       -0.0161558         145.464
0.583                  -0.996489        -167.048         -53.9274         -81.555         -53.9273        -81.5586       -0.0163051          145.39
0.584                   -1.03008        -167.941         -53.8096        -83.0041         -53.8096         -83.009       -0.0164565         145.316
0.585                   -1.06631        -168.845         -53.6851        -84.4658         -53.6852        -84.4722       -0.0166102         145.241
0.586                   -1.10535        -169.761          -53.554        -85.9422         -53.5542        -85.9504       -0.0167661         145.166
0.587                   -1.14738        -170.688         -53.4164        -87.4358         -53.4168         -87.446       -0.0169243         145.092
0.588                   -1.19262        -171.626         -53.2723        -88.9488         -53.2729        -88.9616       -0.0170849         145.017
0.589                   -1.24128        -172.575         -53.1219        -90.4838         -53.1227        -90.4996       -0.0172479         144.941
0.59                     -1.2936        -173.534         -52.9652        -92.0431         -52.9664        -92.0626       -0.0174135         144.866
0.591                   -1.34983        -174.503         -52.8023        -93.6293         -52.8038        -93.6533       -0.0175816         144.791
0.592                   -1.41024        -175.482         -52.6332        -95.2449         -52.6352        -95.2745       -0.0177524         144.715
0.593                   -1.47512        -176.469         -52.4579        -96.8923         -52.4604        -96.9294       -0.0179259         144.639
0.594                   -1.54479        -177.463         -52.2763        -98.5743         -52.2793         -98.621       -0.0181022         144.563
0.595                   -1.61957        -178.464         -52.0881        -100.293         -52.0917        -100.353       -0.0182813         144.487
0.596                    -1.6998        -179.469         -51.8929        -102.049         -51.8968        -102.128       -0.0184634          144.41
0.597                   -1.78584         179.522         -51.6898        -103.844         -51.6936        -103.948       -0.0186485         144.334
0.598                   -1.87806         178.513         -51.4773        -105.671         -51.4798        -105.813       -0.0188367         144.257
0.599                   -1.97684         177.506         -51.2536        -107.514         -51.2515        -107.709        -0.019028          144.18
0.6                     -2.08256         176.505         -51.0175        -109.334         -51.0031        -109.588       -0.0192226         144.103
0.601                   -2.19559         175.511         -50.7735        -111.059         -50.7341        -111.313       -0.0194206         144.025
0.602                    -2.3163         174.531         -50.5416        -112.631         -50.4775        -112.701       -0.0196219         143.948
0.603                   -2.44501         173.568         -50.3495        -114.173         -50.2988        -113.977       -0.0198267          143.87
0.604                   -2.58203         172.628         -50.1911        -115.941         -50.1737        -115.695       -0.0200352         143.792
0.605                   -2.72757         171.718         -50.0338        -117.988         -50.0336        -117.822       -0.0202472         143.714
0.606                    -2.8818         170.844         -49.8623        -120.207         -49.8662        -120.114        -0.020463         143.635
0.607                   -3.04474         170.015         -49.6777        -122.515         -49.6814        -122.465       -0.0206826         143.557
0.608                   -3.21629         169.239         -49.4852        -124.875         -49.4877        -124.849        -0.020906         143.478
0.609                   -3.39616         168.525         -49.2886        -127.277           -49.29        -127.264       -0.0211334         143.399
0.61                    -3.58383         167.884         -49.0908        -129.718         -49.0914        -129.713       -0.0213647          143.32
0.611                   -3.77853         167.326         -48.8938          -132.2         -48.8939        -132.199       -0.0216001          143.24
0.612                   -3.97917         166.862         -48.6989        -134.722         -48.6986        -134.724       -0.0218396         143.161
0.613                   -4.18429         166.504         -48.5073        -137.284         -48.5068        -137.289       -0.0220833         143.081
0.614                   -4.39206          166.26         -48.3199        -139.886         -48.3193        -139.892       -0.0223311         143.001
0.615                   -4.60021          166.14         -48.1375        -142.526         -48.1369        -142.532       -0.0225831          142.92
0.616                   -4.80608          166.15         -47.9609        -145.202         -47.9602        -145.208       -0.0228394          142.84
0.617                   -5.00661         166.295         -47.7905         -147.91         -47.7899        -147.917       -0.0230998         142.759
0.618                   -5.19842         166.576          -47.627        -150.648         -47.6265        -150.655       -0.0233646         142.678
0.619                   -5.37793         166.987         -47.4708        -153.411         -47.4703        -153.417       -0.0236335         142.597
0.62                    -5.54154          167.52         -47.3223        -156.194         -47.3219        -156.201       -0.0239067         142.515
0.621                    -5.6858         168.161         -47.1817        -158.994         -47.1814            -159        -0.024184         142.434
0.622                   -5.80765          168.89         -47.0491        -161.805         -47.0489        -161.811       -0.0244655         142.352
0.623                   -5.90465         169.683         -46.9248        -164.623         -46.9247        -164.628       -0.0247512         142.269
0.624                   -5.97516         170.512         -46.8086        -167.441         -46.8086        -167.446        -0.025041         142.187
0.625                   -6.01848         171.348         -46.7005        -170.256         -46.7005         -170.26       -0.0253348         142.104
0.626                    -6.0349         172.161         -46.6002        -173.063         -46.6003        -173.066       -0.0256326         142.021
0.627                    -6.0256         172.922         -46.5075        -175.856         -46.5076        -175.859       -0.0259344         141.938
0.628                    -5.9926         173.608          -46.422        -178.633         -46.4221        -178.635       -0.0262402         141.855
0.629                   -5.93851         174.197         -46.3433         178.612         -46.3434          178.61       -0.0265499         141.771
0.63                    -5.86635         174.673         -46.2709         175.881         -46.2711          175.88       -0.0268635         141.687
0.631                   -5.77931         175.025         -46.2043         173.178         -46.2045         173.177        -0.027181         141.603
0.632                    -5.6806         175.247          -46.143         170.505         -46.1433         170.504       -0.0275024         141.518
0.633                   -5.57327         175.337         -46.0865         167.863         -46.0867         167.863       -0.0278277         141.434
0.634                   -5.46012         175.294          -46.034         165.256         -46.0342         165.256       -0.0281569         141.349
0.635                   -5.34366         175.123         -45.9851         162.683         -45.9853         162.684         -0.02849         141.263
0.636                   -5.22605         174.829         -45.9391         160.146         -45.9393         160.147       -0.0288271         141.178
0.637                    -5.1091         174.417         -45.8956         157.645         -45.8957         157.646       -0.0291684         141.092
0.638                   -4.99434         173.896         -45.8539          155.18          -45.854         155.181       -0.0295138         141.005
0.639                   -4.88297         173.271         -45.8135          152.75         -45.8137         152.751       -0.0298634         140.919
0.64                    -4.77597         172.552          -45.774         150.355         -45.7741         150.356       -0.0302174         140.832
0.641                   -4.67408         171.744         -45.7349         147.994          -45.735         147.995       -0.0305758         140.745
0.642                   -4.57788         170.854         -45.6957         145.665         -45.6958         145.667       -0.0309389         140.657
0.643                   -4.48779         169.889          -45.656         143.368         -45.6561          143.37       -0.0313068         140.569
0.644                   -4.40411         168.854         -45.6156         141.102         -45.6156         141.103       -0.0316796         140.481
0.645                   -4.32705         167.753         -45.5739         138.863         -45.5739         138.864       -0.0320575         140.393
0.646                   -4.25675         166.592         -45.5308         136.652         -45.5308         136.653       -0.0324406         140.304
0.647                   -4.19329         165.374         -45.4859         134.465         -45.4859         134.466       -0.0328292         140.215
0.648                   -4.13673         164.102         -45.4391         132.301          -45.439         132.302       -0.0332235         140.125
0.649                   -4.08709          162.78           -45.39         130.158           -45.39         130.159       -0.0336235         140.035
0.65                    -4.04436         161.409         -45.3386         128.034         -45.3385         128.035       -0.0340296         139.945
0.651                   -4.00857         159.992         -45.2845         125.928         -45.2845         125.928        -0.034442         139.855
0.652                   -3.97971         158.531         -45.2278         123.836         -45.2278         123.837       -0.0348608         139.764
0.653                   -3.95779         157.026         -45.1683         121.758         -45.1683         121.758       -0.0352862         139.672
0.654                   -3.94284          155.48          -45.106          119.69         -45.1059          119.69       -0.0357186         139.581
0.655                    -3.9349         153.891         -45.0406         117.632         -45.0406         117.632        -0.036158         139.488
0.656                   -3.93403         152.261         -44.9723         115.581         -44.9723         115.581       -0.0366046         139.396
0.657                   -3.94031          150.59         -44.9009         113.535         -44.9009         113.535       -0.0370588         139.303
0.658                   -3.95384         148.878         -44.8266         111.492         -44.8265         111.492       -0.0375207          139.21
0.659                   -3.97477         147.125         -44.7492          109.45         -44.7492          109.45       -0.0379906         139.116
0.66                    -4.00326         145.331         -44.6688         107.408         -44.6688         107.408       -0.0384686         139.022
0.661                    -4.0395         143.494         -44.5856         105.363         -44.5856         105.363        -0.038955         138.927
0.662                   -4.08373         141.614         -44.4995         103.314         -44.4995         103.314         -0.03945         138.832
0.663                   -4.13622         139.691         -44.4106         101.259         -44.4106         101.258       -0.0399539         138.737
0.664                   -4.19727         137.723         -44.3191         99.1957         -44.3191         99.1953       -0.0404668         138.641
0.665                   -4.26723         135.709         -44.2251          97.123         -44.2251         97.1226        -0.040989         138.545
0.666                   -4.34651         133.649         -44.1287         95.0391         -44.1287         95.0387       -0.0415207         138.448
0.667                   -4.43553          131.54         -44.0301         92.9424         -44.0301         92.9421       -0.0420622         138.351
0.668                   -4.53479         129.381         -43.9295         90.8314         -43.9295         90.8311       -0.0426137         138.253
0.669                   -4.64483         127.171         -43.8271         88.7047         -43.8271         88.7044       -0.0431754         138.155
0.67                    -4.76627         124.909         -43.7231         86.5609         -43.7231         86.5606       -0.0437477         138.056
0.671                   -4.89975         122.591         -43.6178         84.3987         -43.6178         84.3985       -0.0443306         137.957
0.672                   -5.04602         120.218         -43.5114         82.2171         -43.5113         82.2169       -0.0449246         137.857
0.673                   -5.20587         117.785         -43.4041          80.015         -43.4041         80.0148       -0.0455298         137.757
0.674                   -5.38019         115.292         -43.2964         77.7914         -43.2964         77.7913       -0.0461466         137.657
0.675                   -5.56994         112.737         -43.1886         75.5458         -43.1885         75.5457       -0.0467752         137.556
0.676                   -5.77618         110.115         -43.0808         73.2775         -43.0808         73.2774       -0.0474159         137.454
0.677                   -6.00005         107.425         -42.9736         70.9861         -42.9735         70.9861        -0.048069         137.352
0.678                   -6.24284         104.664         -42.8672         68.6716         -42.8671         68.6715       -0.0487348         137.249
0.679                   -6.50592         101.828          -42.762         66.3339          -42.762         66.3338       -0.0494135         137.145
0.68                    -6.79081          98.913         -42.6585         63.9732         -42.6584         63.9732       -0.0501056         137.042
0.681                    -7.0992         95.9143         -42.5569         61.5903         -42.5568         61.5902       -0.0508113         136.937
0.682                   -7.43292         92.8265         -42.4576         59.1857         -42.4576         59.1857        -0.051531         136.832
0.683                   -7.79403         89.6428         -42.3611         56.7606         -42.3611         56.7605        -0.052265         136.726
0.684                   -8.18477         86.3553         -42.2677         54.3163         -42.2677         54.3162       -0.0530137          136.62
0.685                   -8.60766          82.954         -42.1778         51.8543         -42.1777         51.8542       -0.0537775         136.513
0.686                   -9.06551         79.4265         -42.0916         49.3765         -42.0915         49.3764       -0.0545567         136.406
0.687                   -9.56146         75.7569         -42.0096          46.885         -42.0095         46.8849       -0.0553517         136.298
0.688                    -10.099         71.9249         -41.9319         44.3822         -41.9318          44.382        -0.056163         136.189
0.689                   -10.6822         67.9044         -41.8588         41.8707         -41.8587         41.8704       -0.0569909          136.08
0.69                    -11.3153         63.6608         -41.7906         39.3531         -41.7905         39.3528       -0.0578359          135.97
0.691                   -12.0032         59.1481         -41.7273         36.8325         -41.7272         36.8322       -0.0586985         135.859
0.692                   -12.7512         54.3045         -41.6691         34.3119         -41.6691         34.3116        -0.059579         135.747
0.693                   -13.5646          49.046         -41.6161         31.7945         -41.6161         31.7942       -0.0604779         135.635
0.694                   -14.4482         43.2572         -41.5684         29.2835         -41.5683         29.2832       -0.0613958         135.522
0.695                   -15.4048         36.7784         -41.5257         26.7821         -41.5257         26.7818        -0.062333         135.409
0.696                   -16.4321         29.3901         -41.4881         24.2936         -41.4881         24.2934       -0.0632901         135.295