! TOUCHSTONE file generated by CST MICROWAVE STUDIO
! Date and time: Sat Oct 24 10:49:19 2020
! Project name: Scenario_1_Planar_Body_Tissue_Center.cst
! Parameters = {hfat=3; hmuscle=50; hskin=1.5; hgap=25; Wtissue=700; Ltissue=700; L_HA=400; MT=2.54; Rad_Dielectric=30; Rad_Lower=7.3; Rad_Upper=30; a_HA=580; a_WG=246; b_HA=500; b_WG=121; c_HA=0; c_WG=187; d_feed=85; dx1=969.72; h_feed=15; h_lower=18; h_upper=40}
! Header version: 2018
! Port assignment regex: !\s*Touchstone port\s*([0-9]+)\s*=\s*(CST MWS port|CST DS port)\s*([0-9]+|Zmin|Zmax)\s*\(\"(.*)\"\)(\s*mode\s*([0-9]+))?.*
! Touchstone port assignment:
! Touchstone port 1 = CST MWS port 1 ("")
! Touchstone port 2 = CST MWS port 2 ("")
# GHz S DB R 50
0.5                    -0.218076        -122.033         -61.2985         33.7484         -61.2983         33.7483      -0.00777033         151.124
0.501                  -0.226353        -122.421         -61.2299         30.7884         -61.2287         30.7859      -0.00783676         151.059
0.502                  -0.234194         -122.81         -61.1634         27.8218         -61.1613         27.8168      -0.00790361         150.993
0.503                   -0.24156        -123.199         -61.0991         24.8521         -61.0962         24.8447      -0.00797087         150.928
0.504                  -0.248423        -123.589         -61.0373         21.8832         -61.0336         21.8733      -0.00803855         150.863
0.505                  -0.254761        -123.979         -60.9781         18.9186         -60.9738         18.9063      -0.00810667         150.797
0.506                  -0.260562        -124.372         -60.9216         15.9623         -60.9168         15.9476      -0.00817523         150.732
0.507                  -0.265824        -124.766         -60.8679          13.018         -60.8627         13.0009      -0.00824423         150.666
0.508                  -0.270552        -125.164         -60.8171         10.0894         -60.8115         10.0701       -0.0083137           150.6
0.509                  -0.274762        -125.564         -60.7691         7.18018         -60.7633         7.15875      -0.00838364         150.534
0.51                   -0.278476        -125.968          -60.724          4.2939          -60.718         4.27054      -0.00845406         150.469
0.511                  -0.281722        -126.376         -60.6815         1.43398         -60.6755         1.40886      -0.00852497         150.403
0.512                  -0.284535        -126.788         -60.6417        -1.39637         -60.6357        -1.42303      -0.00859637         150.337
0.513                  -0.286955        -127.204         -60.6042        -4.19408         -60.5983        -4.22206      -0.00866829          150.27
0.514                  -0.289024        -127.626          -60.569        -6.95636         -60.5632        -6.98542      -0.00874072         150.204
0.515                  -0.290787        -128.053         -60.5358        -9.68063         -60.5302        -9.71053      -0.00881369         150.138
0.516                  -0.292291        -128.486         -60.5043        -12.3646         -60.4989        -12.3951       -0.0088872         150.071
0.517                  -0.293583        -128.924         -60.4742        -15.0062          -60.469         -15.037      -0.00896127         150.005
0.518                  -0.294711        -129.368         -60.4452        -17.6038         -60.4403        -17.6347       -0.0090359         149.938
0.519                  -0.295721        -129.817          -60.417        -20.1558         -60.4124        -20.1865      -0.00911111         149.872
0.52                   -0.296658        -130.273         -60.3892         -22.661         -60.3849        -22.6915      -0.00918692         149.805
0.521                  -0.297566        -130.735         -60.3615        -25.1187         -60.3575        -25.1485      -0.00926333         149.738
0.522                  -0.298488        -131.204         -60.3334        -27.5281         -60.3298        -27.5572      -0.00934036         149.671
0.523                  -0.299464        -131.678         -60.3046         -29.889         -60.3013        -29.9171      -0.00941802         149.604
0.524                  -0.300531        -132.159         -60.2748        -32.2011         -60.2718        -32.2281      -0.00949634         149.537
0.525                  -0.301728        -132.646         -60.2436        -34.4648         -60.2409        -34.4905      -0.00957531          149.47
0.526                  -0.303089         -133.14         -60.2105        -36.6802         -60.2081        -36.7046      -0.00965497         149.403
0.527                  -0.304648         -133.64         -60.1752        -38.8481         -60.1731         -38.871      -0.00973533         149.335
0.528                  -0.306436        -134.146         -60.1374        -40.9693         -60.1356        -40.9906       -0.0098164         149.268
0.529                  -0.308486        -134.659         -60.0966        -43.0447         -60.0951        -43.0644       -0.0098982           149.2
0.53                   -0.310828        -135.178         -60.0526        -45.0754         -60.0513        -45.0935      -0.00998076         149.133
0.531                  -0.313491        -135.704          -60.005        -47.0629         -60.0039        -47.0793       -0.0100641         149.065
0.532                  -0.316506        -136.237         -59.9534        -49.0087         -59.9525        -49.0234       -0.0101482         148.997
0.533                  -0.319902        -136.776         -59.8976        -50.9142         -59.8969        -50.9272       -0.0102331         148.929
0.534                  -0.323709        -137.322         -59.8373        -52.7814         -59.8366        -52.7927       -0.0103189         148.861
0.535                  -0.327959        -137.874          -59.772         -54.612         -59.7715        -54.6218       -0.0104055         148.793
0.536                  -0.332684        -138.434         -59.7016        -56.4081         -59.7012        -56.4163        -0.010493         148.725
0.537                  -0.337916            -139         -59.6258        -58.1718         -59.6255        -58.1786       -0.0105814         148.656
0.538                  -0.343692        -139.574         -59.5442        -59.9053          -59.544        -59.9107       -0.0106708         148.588
0.539                  -0.350048        -140.154         -59.4567         -61.611         -59.4566         -61.615       -0.0107611         148.519
0.54                   -0.357025        -140.742          -59.363        -63.2911         -59.3629        -63.2939       -0.0108524         148.451
0.541                  -0.364665        -141.336         -59.2629        -64.9483         -59.2628        -64.9499       -0.0109448         148.382
0.542                  -0.373015        -141.939         -59.1562        -66.5851         -59.1561        -66.5857       -0.0110382         148.313
0.543                  -0.382125        -142.549         -59.0425        -68.2042         -59.0424        -68.2038       -0.0111327         148.244
0.544                   -0.39205        -143.166         -58.9218        -69.8084         -58.9217        -69.8072       -0.0112283         148.175
0.545                  -0.402848        -143.792         -58.7939        -71.4006         -58.7938        -71.3986       -0.0113251         148.106
0.546                  -0.414585        -144.425         -58.6586        -72.9837         -58.6584        -72.9811       -0.0114231         148.036
0.547                  -0.427333        -145.066         -58.5157        -74.5608         -58.5155        -74.5577       -0.0115223         147.967
0.548                  -0.441169        -145.716         -58.3651        -76.1351         -58.3648        -76.1315       -0.0116229         147.897
0.549                   -0.45618        -146.374         -58.2066        -77.7097         -58.2063        -77.7058       -0.0117248         147.828
0.55                    -0.47246         -147.04         -58.0402        -79.2882         -58.0399         -79.284       -0.0118281         147.758
0.551                  -0.490113        -147.715         -57.8657         -80.874         -57.8654        -80.8696       -0.0119328         147.688
0.552                  -0.509254        -148.399         -57.6831        -82.4706         -57.6828        -82.4662       -0.0120391         147.618
0.553                  -0.530009        -149.091         -57.4923        -84.0819         -57.4919        -84.0775       -0.0121469         147.548
0.554                  -0.552516        -149.792         -57.2933        -85.7117         -57.2929        -85.7073       -0.0122564         147.477
0.555                  -0.576928        -150.501         -57.0861         -87.364         -57.0856        -87.3597       -0.0123675         147.407
0.556                  -0.603413        -151.219         -56.8706         -89.043         -56.8701        -89.0389       -0.0124804         147.336
0.557                  -0.632155        -151.945          -56.647         -90.753         -56.6465        -90.7491       -0.0125952         147.266
0.558                  -0.663356        -152.679         -56.4152        -92.4985         -56.4147        -92.4949       -0.0127118         147.195
0.559                  -0.697235        -153.421         -56.1755        -94.2841          -56.175        -94.2808       -0.0128304         147.124
0.56                   -0.734032        -154.169          -55.928        -96.1147         -55.9275        -96.1117       -0.0129511         147.053
0.561                  -0.774006        -154.924         -55.6729        -97.9952         -55.6724        -97.9925        -0.013074         146.982
0.562                  -0.817435        -155.684         -55.4105        -99.9309           -55.41        -99.9285       -0.0131991         146.911
0.563                  -0.864617        -156.447         -55.1411        -101.927         -55.1407        -101.925       -0.0133265         146.839
0.564                  -0.915866        -157.213         -54.8652        -103.989         -54.8647        -103.987       -0.0134564         146.768
0.565                  -0.971507        -157.979         -54.5831        -106.122         -54.5827        -106.121       -0.0135889         146.696
0.566                   -1.03187        -158.742         -54.2956        -108.333         -54.2952        -108.332       -0.0137239         146.624
0.567                    -1.0973        -159.501         -54.0033        -110.626          -54.003        -110.626       -0.0138618         146.552
0.568                   -1.16809         -160.25         -53.7071        -113.008         -53.7068        -113.008       -0.0140024          146.48
0.569                   -1.24454        -160.985         -53.4078        -115.484         -53.4076        -115.484       -0.0141461         146.408
0.57                    -1.32686        -161.701         -53.1067         -118.06         -53.1064        -118.059       -0.0142928         146.335
0.571                   -1.41521        -162.393         -52.8048        -120.739         -52.8047        -120.739       -0.0144428         146.263
0.572                   -1.50958        -163.052         -52.5037        -123.527         -52.5036        -123.527        -0.014596          146.19
0.573                   -1.60982        -163.671         -52.2049        -126.426         -52.2048        -126.426       -0.0147527         146.117
0.574                   -1.71555        -164.242         -51.9101         -129.44         -51.9101         -129.44       -0.0149128         146.044
0.575                   -1.82609        -164.754         -51.6213        -132.569         -51.6213        -132.569       -0.0150765         145.971
0.576                   -1.94044        -165.199         -51.3403        -135.813         -51.3403        -135.813       -0.0152439         145.898
0.577                   -2.05718        -165.568         -51.0693        -139.169         -51.0694        -139.169       -0.0154148         145.825
0.578                   -2.17448        -165.853         -50.8104        -142.633         -50.8105        -142.633       -0.0155893         145.751
0.579                   -2.29007        -166.048         -50.5658        -146.198         -50.5659        -146.197       -0.0157674         145.678
0.58                     -2.4013        -166.149         -50.3374        -149.855         -50.3375        -149.854       -0.0159487         145.604
0.581                   -2.50525        -166.159         -50.1271        -153.592         -50.1273        -153.591       -0.0161331          145.53
0.582                    -2.5989        -166.083         -49.9366        -157.395         -49.9368        -157.394       -0.0163201         145.456
0.583                   -2.67932        -165.932         -49.7671        -161.249         -49.7672        -161.249       -0.0165095         145.382
0.584                   -2.74399        -165.722         -49.6195        -165.137         -49.6196        -165.136       -0.0167007         145.307
0.585                     -2.791        -165.475         -49.4942         -169.04         -49.4944         -169.04       -0.0168932         145.233
0.586                   -2.81928        -165.214         -49.3914        -172.941         -49.3915         -172.94       -0.0170866         145.158
0.587                   -2.82868        -164.963         -49.3104         -176.82         -49.3104         -176.82       -0.0172805         145.084
0.588                      -2.82        -164.746         -49.2504         179.338         -49.2504         179.339       -0.0174746         145.009
0.589                   -2.79482        -164.585         -49.2101         175.549         -49.2101          175.55       -0.0176687         144.934
0.59                    -2.75537        -164.496         -49.1879         171.827          -49.188         171.828       -0.0178628         144.858
0.591                   -2.70422        -164.492         -49.1821         168.183         -49.1822         168.183       -0.0180569         144.783
0.592                   -2.64411         -164.58         -49.1907         164.625         -49.1907         164.625       -0.0182513         144.707
0.593                    -2.5777        -164.764         -49.2116         161.159         -49.2117         161.159        -0.018446         144.632
0.594                   -2.50746        -165.043         -49.2429         157.791          -49.243          157.79       -0.0186412         144.556
0.595                   -2.43554        -165.414         -49.2826         154.521         -49.2827         154.521       -0.0188373          144.48
0.596                   -2.36375        -165.871         -49.3289         151.351         -49.3289         151.351       -0.0190343         144.403
0.597                   -2.29357         -166.41         -49.3799          148.28         -49.3799         148.279       -0.0192324         144.327
0.598                   -2.22613        -167.023         -49.4341         145.304         -49.4342         145.304       -0.0194318          144.25
0.599                   -2.16229        -167.702         -49.4901         142.422         -49.4902         142.421       -0.0196326         144.173
0.6                     -2.10267        -168.442         -49.5467         139.629         -49.5468         139.628       -0.0198349         144.096
0.601                   -2.04768        -169.236         -49.6027          136.92         -49.6028         136.919       -0.0200388         144.019
0.602                   -1.99758        -170.079         -49.6571         134.292         -49.6573         134.291       -0.0202444         143.942
0.603                   -1.95253        -170.965         -49.7091         131.738         -49.7093         131.737       -0.0204518         143.864
0.604                   -1.91257        -171.891         -49.7581         129.254         -49.7583         129.253        -0.020661         143.786
0.605                    -1.8777        -172.852         -49.8034         126.835         -49.8036         126.834       -0.0208721         143.708
0.606                   -1.84789        -173.845         -49.8445         124.477         -49.8448         124.476       -0.0210853          143.63
0.607                   -1.82305        -174.868         -49.8811         122.173         -49.8813         122.172       -0.0213005         143.551
0.608                   -1.80312        -175.918         -49.9128          119.92          -49.913         119.919       -0.0215179         143.473
0.609                   -1.78801        -176.994         -49.9393         117.713         -49.9395         117.712       -0.0217376         143.394
0.61                    -1.77765        -178.094         -49.9604         115.547         -49.9607         115.546       -0.0219597         143.315
0.611                   -1.77196        -179.217         -49.9761         113.419         -49.9764         113.419       -0.0221842         143.235
0.612                    -1.7709         179.638         -49.9861         111.325         -49.9864         111.324       -0.0224113         143.156
0.613                   -1.77445         178.472         -49.9904         109.261         -49.9907          109.26       -0.0226411         143.076
0.614                   -1.78257         177.285          -49.989         107.223         -49.9893         107.222       -0.0228736         142.996
0.615                   -1.79529         176.077         -49.9819         105.208         -49.9822         105.208        -0.023109         142.916
0.616                   -1.81264         174.849         -49.9691         103.213         -49.9694         103.212       -0.0233474         142.835
0.617                   -1.83468           173.6         -49.9506         101.234         -49.9509         101.234       -0.0235889         142.755
0.618                   -1.86148         172.331         -49.9265         99.2689         -49.9267          99.269       -0.0238337         142.674
0.619                   -1.89317         171.042         -49.8968         97.3148         -49.8971          97.315       -0.0240817         142.592
0.62                    -1.92987         169.732         -49.8617         95.3689          -49.862         95.3692       -0.0243332         142.511
0.621                   -1.97175         168.402         -49.8213         93.4285         -49.8215         93.4289       -0.0245883         142.429
0.622                   -2.01901         167.051         -49.7756         91.4913         -49.7759         91.4918        -0.024847         142.347
0.623                   -2.07188         165.679         -49.7249         89.5548         -49.7251         89.5553       -0.0251095         142.265
0.624                   -2.13061         164.286         -49.6693         87.6167         -49.6695         87.6173       -0.0253759         142.183
0.625                   -2.19549         162.873         -49.6089         85.6748         -49.6091         85.6754       -0.0256464           142.1
0.626                   -2.26687         161.438          -49.544          83.727         -49.5442         83.7277        -0.025921         142.017
0.627                   -2.34509         159.982         -49.4747         81.7714         -49.4748         81.7721       -0.0261999         141.934
0.628                   -2.43057         158.505         -49.4012         79.8058         -49.4013         79.8066       -0.0264831          141.85
0.629                   -2.52375         157.009         -49.3238         77.8286         -49.3239         77.8294       -0.0267709         141.766
0.63                    -2.62511         155.492         -49.2426         75.8379         -49.2427         75.8387       -0.0270633         141.682
0.631                    -2.7352         153.957         -49.1581         73.8321         -49.1581         73.8328       -0.0273604         141.598
0.632                   -2.85459         152.404         -49.0703         71.8096         -49.0704         71.8103       -0.0276624         141.513
0.633                    -2.9839         150.835         -48.9796         69.7689         -48.9797         69.7696       -0.0279693         141.429
0.634                   -3.12381          149.25         -48.8864         67.7088         -48.8864         67.7095       -0.0282814         141.343
0.635                   -3.27505         147.654         -48.7908          65.628         -48.7909         65.6286       -0.0285986         141.258
0.636                   -3.43841         146.047         -48.6934         63.5255         -48.6934         63.5261       -0.0289212         141.172
0.637                   -3.61471         144.434         -48.5943         61.4005         -48.5943          61.401       -0.0292493         141.086
0.638                   -3.80483         142.819          -48.494         59.2521          -48.494         59.2526        -0.029583         140.999
0.639                   -4.00971         141.205         -48.3928         57.0799         -48.3928         57.0803       -0.0299223         140.913
0.64                    -4.23033         139.599         -48.2911         54.8835         -48.2911         54.8839       -0.0302674         140.826
0.641                   -4.46772         138.008         -48.1894          52.663         -48.1893         52.6633       -0.0306185         140.738
0.642                   -4.72292          136.44         -48.0879         50.4183         -48.0879         50.4186       -0.0309756         140.651
0.643                   -4.99703         134.903         -47.9872           48.15         -47.9871         48.1501       -0.0313389         140.563
0.644                   -5.29113          133.41         -47.8875         45.8586         -47.8875         45.8587       -0.0317084         140.474
0.645                   -5.60629         131.972         -47.7894          43.545         -47.7893         43.5451       -0.0320843         140.386
0.646                   -5.94355         130.605         -47.6931         41.2106          -47.693         41.2106       -0.0324667         140.297
0.647                   -6.30387         129.326          -47.599         38.8567          -47.599         38.8567       -0.0328557         140.207
0.648                   -6.68805         128.156         -47.5075          36.485         -47.5075         36.4849       -0.0332514         140.118
0.649                   -7.09668          127.12         -47.4189         34.0975         -47.4189         34.0975       -0.0336539         140.028
0.65                    -7.53004         126.243         -47.3335         31.6965         -47.3335         31.6964       -0.0340634         139.937
0.651                    -7.9879         125.559         -47.2515         29.2843         -47.2515         29.2843       -0.0344798         139.846
0.652                   -8.46939         125.103         -47.1732         26.8637         -47.1732         26.8636       -0.0349033         139.755
0.653                   -8.97265         124.916         -47.0986         24.4373         -47.0986         24.4373       -0.0353341         139.664
0.654                   -9.49452         125.045          -47.028         22.0082          -47.028         22.0081       -0.0357722         139.572
0.655                   -10.0301         125.539         -46.9613         19.5792         -46.9613         19.5791       -0.0362177          139.48
0.656                   -10.5721         126.448         -46.8986         17.1534         -46.8987         17.1533       -0.0366708         139.387
0.657                   -11.1103          127.82         -46.8399         14.7338         -46.8399         14.7338       -0.0371315         139.294
0.658                   -11.6314         129.693          -46.785         12.3234         -46.7851         12.3234       -0.0375999           139.2
0.659                   -12.1185         132.085         -46.7339         9.92497         -46.7339         9.92501       -0.0380762         139.107
0.66                    -12.5517         134.982         -46.6863         7.54136         -46.6863         7.54142       -0.0385605         139.012
0.661                   -12.9106         138.328         -46.6419         5.17507          -46.642         5.17516       -0.0390528         138.918
0.662                   -13.1763         142.014         -46.6006         2.82848         -46.6007         2.82859       -0.0395534         138.823
0.663                   -13.3355         145.889          -46.562        0.503708         -46.5621        0.503832       -0.0400624         138.727
0.664                   -13.3837         149.773         -46.5258        -1.79737         -46.5259        -1.79723       -0.0405799         138.631
0.665                   -13.3256         153.488         -46.4917        -4.07315         -46.4917          -4.073        -0.041106         138.535
0.666                   -13.1744         156.886         -46.4591         -6.3223         -46.4591        -6.32214        -0.041641         138.438
0.667                   -12.9485         159.861         -46.4278        -8.54375         -46.4278         -8.5436        -0.042185          138.34
0.668                    -12.668         162.359         -46.3974        -10.7368         -46.3974        -10.7366       -0.0427382         138.243
0.669                   -12.3517         164.368         -46.3674        -12.9008         -46.3674        -12.9006       -0.0433008         138.144
0.67                    -12.0154         165.904         -46.3375        -15.0356         -46.3375        -15.0355        -0.043873         138.046
0.671                   -11.6719         167.003         -46.3072        -17.1413         -46.3072        -17.1412        -0.044455         137.946
0.672                   -11.3306          167.71         -46.2762        -19.2181         -46.2762        -19.2179       -0.0450471         137.847
0.673                   -10.9981         168.069         -46.2442        -21.2663         -46.2441        -21.2662       -0.0456495         137.746
0.674                   -10.6788         168.126         -46.2106        -23.2868         -46.2106        -23.2868       -0.0462624         137.646
0.675                   -10.3758          167.92         -46.1753        -25.2804         -46.1753        -25.2803       -0.0468863         137.544
0.676                   -10.0905         167.488         -46.1379         -27.248         -46.1378         -27.248       -0.0475212         137.443
0.677                   -9.82395         166.861          -46.098        -29.1909          -46.098        -29.1909       -0.0481676          137.34
0.678                   -9.57625         166.065         -46.0555        -31.1103         -46.0555        -31.1103       -0.0488257         137.237
0.679                    -9.3473         165.123           -46.01        -33.0076           -46.01        -33.0076       -0.0494958         137.134
0.68                    -9.13671         164.054         -45.9613        -34.8842         -45.9613        -34.8843       -0.0501784          137.03
0.681                   -8.94394         162.874         -45.9093        -36.7419         -45.9093        -36.7419       -0.0508736         136.925
0.682                   -8.76837         161.595         -45.8536        -38.5821         -45.8536        -38.5822        -0.051582          136.82
0.683                   -8.60935          160.23         -45.7942        -40.4065         -45.7943        -40.4066       -0.0523038         136.714
0.684                   -8.46622         158.788         -45.7309         -42.217         -45.7309        -42.2171       -0.0530395         136.608
0.685                   -8.33833         157.275         -45.6636        -44.0152         -45.6636        -44.0153       -0.0537894         136.501
0.686                   -8.22509         155.699         -45.5921        -45.8028         -45.5921         -45.803       -0.0545539         136.393
0.687                   -8.12594         154.065         -45.5163        -47.5818         -45.5163        -47.5819       -0.0553334         136.285
0.688                   -8.04035         152.377         -45.4362        -49.3539         -45.4362         -49.354       -0.0561284         136.176
0.689                   -7.96788         150.638         -45.3517        -51.1208         -45.3517        -51.1209       -0.0569393         136.066
0.69                    -7.90811         148.851         -45.2628        -52.8845         -45.2628        -52.8846       -0.0577665         135.956
0.691                    -7.8607         147.017         -45.1694        -54.6467         -45.1694        -54.6468       -0.0586105         135.845
0.692                   -7.82535         145.139         -45.0715        -56.4092         -45.0715        -56.4092       -0.0594717         135.733
0.693                   -7.80182         143.217         -44.9692        -58.1737         -44.9692        -58.1738       -0.0603507         135.621
0.694                   -7.78992         141.251         -44.8624        -59.9422         -44.8624        -59.9422        -0.061248         135.508
0.695                   -7.78952         139.243         -44.7512        -61.7162         -44.7512        -61.7162       -0.0621639         135.394
0.696                   -7.80054         137.191         -44.6355        -63.4976         -44.6356        -63.4976       -0.0630992         135.279