! TOUCHSTONE file generated by CST MICROWAVE STUDIO
! Date and time: Mon Nov 30 09:06:55 2020
! Project name: Scenario_1_Planar_Body_Tissue_Out_of_Line_v2.cst
! Parameters = {dy1=-190.3; L_HA=400; Ltissue=700; MT=2.54; Rad_Dielectric=30; Rad_Lower=7.3; Rad_Upper=30; Wtissue=700; a_HA=580; a_WG=246; b_HA=500; b_WG=121; c_HA=0; c_WG=187; d_feed=85; dx1=346; h_feed=15; h_lower=18; h_upper=40; hfat=3; hgap=25; hmuscle=50; hskin=1.5}
! Header version: 2018
! Port assignment regex: !\s*Touchstone port\s*([0-9]+)\s*=\s*(CST MWS port|CST DS port)\s*([0-9]+|Zmin|Zmax)\s*\(\"(.*)\"\)(\s*mode\s*([0-9]+))?.*
! Touchstone port assignment:
! Touchstone port 1 = CST MWS port 1 ("")
! Touchstone port 2 = CST MWS port 2 ("")
# GHz S DB R 50
0.5                    -0.259557        -121.819         -56.7087         22.8979         -56.7087         22.8978      -0.00830437         151.145
0.501                  -0.260544        -122.205         -56.5752         20.7571         -56.5751         20.7561      -0.00836796          151.08
0.502                  -0.261556        -122.594         -56.4472          18.606         -56.4471          18.604      -0.00843188         151.014
0.503                  -0.262595        -122.986          -56.325         16.4471         -56.3248         16.4442      -0.00849613         150.949
0.504                  -0.263663        -123.381         -56.2084         14.2832         -56.2081         14.2793      -0.00856074         150.884
0.505                  -0.264762        -123.779         -56.0976         12.1169         -56.0973         12.1122       -0.0086257         150.818
0.506                  -0.265894         -124.18         -55.9925           9.951         -55.9922         9.94537      -0.00869101         150.753
0.507                  -0.267061        -124.584         -55.8931         7.78814         -55.8927          7.7817       -0.0087567         150.687
0.508                  -0.268265        -124.991         -55.7993         5.63101          -55.799         5.62382      -0.00882277         150.622
0.509                  -0.269509        -125.401         -55.7111         3.48224         -55.7107         3.47433      -0.00888921         150.556
0.51                   -0.270795        -125.814         -55.6281         1.34432         -55.6277         1.33575      -0.00895606          150.49
0.511                  -0.272125         -126.23         -55.5504       -0.780335           -55.55       -0.789506       -0.0090233         150.424
0.512                  -0.273503         -126.65         -55.4776        -2.88945         -55.4772        -2.89917      -0.00909096         150.358
0.513                   -0.27493        -127.072         -55.4095        -4.98091         -55.4092        -4.99111      -0.00915903         150.292
0.514                   -0.27641        -127.498         -55.3459        -7.05274         -55.3456        -7.06337      -0.00922754         150.226
0.515                  -0.277945        -127.928         -55.2866        -9.10315         -55.2863        -9.11415      -0.00929648          150.16
0.516                  -0.279538        -128.361         -55.2312        -11.1305         -55.2309        -11.1418      -0.00936588         150.093
0.517                  -0.281193        -128.797         -55.1794        -13.1334         -55.1792         -13.145      -0.00943573         150.027
0.518                  -0.282913        -129.237          -55.131        -15.1106         -55.1308        -15.1224      -0.00950606         149.961
0.519                  -0.284702         -129.68         -55.0855         -17.061         -55.0854         -17.073      -0.00957686         149.894
0.52                   -0.286562        -130.127         -55.0428        -18.9838         -55.0427        -18.9958      -0.00964815         149.827
0.521                  -0.288498        -130.578         -55.0025        -20.8782         -55.0025        -20.8903      -0.00971995         149.761
0.522                  -0.290513        -131.032         -54.9643        -22.7436         -54.9643        -22.7557      -0.00979226         149.694
0.523                  -0.292612         -131.49         -54.9279        -24.5798         -54.9279        -24.5918       -0.0098651         149.627
0.524                  -0.294799        -131.952         -54.8929        -26.3864          -54.893        -26.3983      -0.00993847          149.56
0.525                  -0.297078        -132.418         -54.8592        -28.1633         -54.8593        -28.1751       -0.0100124         149.493
0.526                  -0.299454        -132.888         -54.8263        -29.9106         -54.8264        -29.9223       -0.0100869         149.426
0.527                  -0.301931        -133.362          -54.794        -31.6283         -54.7942        -31.6399       -0.0101619         149.358
0.528                  -0.304516        -133.839         -54.7622        -33.3168         -54.7624        -33.3282       -0.0102376         149.291
0.529                  -0.307212        -134.321         -54.7304        -34.9764         -54.7307        -34.9875       -0.0103138         149.223
0.53                   -0.310026        -134.808         -54.6985        -36.6074         -54.6988        -36.6183       -0.0103907         149.156
0.531                  -0.312964        -135.298         -54.6663        -38.2104         -54.6666         -38.221       -0.0104682         149.088
0.532                  -0.316031        -135.793         -54.6334        -39.7858         -54.6338        -39.7962       -0.0105463          149.02
0.533                  -0.319234        -136.292         -54.5998        -41.3344         -54.6002        -41.3444       -0.0106251         148.953
0.534                   -0.32258        -136.796         -54.5653        -42.8567         -54.5656        -42.8664       -0.0107046         148.885
0.535                  -0.326076        -137.304         -54.5296        -44.3534         -54.5299        -44.3628       -0.0107848         148.817
0.536                  -0.329729        -137.817         -54.4925        -45.8253         -54.4929        -45.8344       -0.0108656         148.748
0.537                  -0.333547        -138.335          -54.454         -47.273         -54.4544        -47.2818       -0.0109472          148.68
0.538                  -0.337539        -138.858         -54.4138        -48.6974         -54.4143        -48.7059       -0.0110296         148.612
0.539                  -0.341712        -139.385         -54.3719        -50.0993         -54.3724        -50.1074       -0.0111127         148.543
0.54                   -0.346077        -139.918         -54.3281        -51.4794         -54.3285        -51.4872       -0.0111966         148.475
0.541                  -0.350642        -140.455         -54.2823        -52.8385         -54.2827         -52.846       -0.0112812         148.406
0.542                  -0.355418        -140.998         -54.2343        -54.1774         -54.2347        -54.1846       -0.0113667         148.337
0.543                  -0.360416        -141.546         -54.1841         -55.497         -54.1845        -55.5039       -0.0114531         148.268
0.544                  -0.365646          -142.1         -54.1315        -56.7981          -54.132        -56.8046       -0.0115402         148.199
0.545                  -0.371121        -142.659         -54.0765        -58.0815          -54.077        -58.0877       -0.0116283          148.13
0.546                  -0.376853        -143.224          -54.019        -59.3479         -54.0195        -59.3538       -0.0117173         148.061
0.547                  -0.382856        -143.794          -53.959        -60.5982         -53.9594        -60.6038       -0.0118072         147.992
0.548                  -0.389143        -144.371         -53.8962        -61.8333         -53.8966        -61.8386        -0.011898         147.922
0.549                   -0.39573        -144.953         -53.8307        -63.0538         -53.8311        -63.0588       -0.0119898         147.853
0.55                   -0.402632        -145.542         -53.7624        -64.2606         -53.7628        -64.2654       -0.0120826         147.783
0.551                  -0.409866        -146.137         -53.6913        -65.4545         -53.6917         -65.459       -0.0121765         147.713
0.552                  -0.417449        -146.738         -53.6172        -66.6363         -53.6176        -66.6405       -0.0122714         147.643
0.553                  -0.425401        -147.346         -53.5402        -67.8067         -53.5406        -67.8106       -0.0123673         147.573
0.554                   -0.43374         -147.96         -53.4601        -68.9665         -53.4605        -68.9702       -0.0124644         147.503
0.555                   -0.44249        -148.582          -53.377        -70.1165         -53.3774          -70.12       -0.0125626         147.433
0.556                  -0.451671         -149.21         -53.2908        -71.2575         -53.2912        -71.2607       -0.0126619         147.362
0.557                  -0.461308        -149.846         -53.2015        -72.3902         -53.2018        -72.3932       -0.0127625         147.292
0.558                  -0.471426        -150.489         -53.1089        -73.5154         -53.1093        -73.5182       -0.0128643         147.221
0.559                  -0.482053        -151.139         -53.0132        -74.6338         -53.0135        -74.6364       -0.0129673          147.15
0.56                   -0.493217        -151.797         -52.9142        -75.7463         -52.9145        -75.7487       -0.0130717          147.08
0.561                  -0.504949        -152.463         -52.8119        -76.8536         -52.8122        -76.8558       -0.0131773         147.008
0.562                  -0.517281        -153.137         -52.7063        -77.9564         -52.7066        -77.9585       -0.0132844         146.937
0.563                  -0.530249        -153.819         -52.5974        -79.0556         -52.5977        -79.0575       -0.0133928         146.866
0.564                  -0.543891        -154.509         -52.4851        -80.1519         -52.4854        -80.1536       -0.0135027         146.795
0.565                  -0.558245        -155.208         -52.3695        -81.2462         -52.3697        -81.2477       -0.0136141         146.723
0.566                  -0.573355        -155.916         -52.2504        -82.3391         -52.2507        -82.3405        -0.013727         146.651
0.567                  -0.589266        -156.633         -52.1279        -83.4315         -52.1282        -83.4328       -0.0138415         146.579
0.568                  -0.606028         -157.36          -52.002        -84.5243         -52.0022        -84.5254       -0.0139576         146.507
0.569                  -0.623692        -158.095         -51.8726        -85.6182         -51.8728        -85.6192       -0.0140754         146.435
0.57                   -0.642314        -158.841         -51.7397         -86.714           -51.74        -86.7149       -0.0141949         146.363
0.571                  -0.661956        -159.596         -51.6034        -87.8128         -51.6036        -87.8135       -0.0143162         146.291
0.572                   -0.68268        -160.362         -51.4636        -88.9152         -51.4638        -88.9159       -0.0144393         146.218
0.573                  -0.704557        -161.138         -51.3202        -90.0223         -51.3204        -90.0228       -0.0145642         146.145
0.574                  -0.727661        -161.925         -51.1734        -91.1348         -51.1736        -91.1353       -0.0146911         146.073
0.575                  -0.752071        -162.722          -51.023        -92.2538         -51.0232        -92.2542         -0.01482             146
0.576                  -0.777874        -163.531         -50.8691        -93.3802         -50.8693        -93.3805        -0.014951         145.926
0.577                  -0.805162        -164.351         -50.7118        -94.5149         -50.7119        -94.5151        -0.015084         145.853
0.578                  -0.834033        -165.183         -50.5509         -95.659          -50.551        -95.6591       -0.0152193          145.78
0.579                  -0.864596        -166.027         -50.3865        -96.8135         -50.3867        -96.8136       -0.0153567         145.706
0.58                   -0.896964        -166.883         -50.2187        -97.9794         -50.2188        -97.9795       -0.0154965         145.632
0.581                  -0.931263        -167.751         -50.0474        -99.1579         -50.0475        -99.1579       -0.0156387         145.558
0.582                  -0.967624        -168.631         -49.8727         -100.35         -49.8728         -100.35       -0.0157833         145.484
0.583                   -1.00619        -169.525         -49.6946        -101.557         -49.6947        -101.557       -0.0159305          145.41
0.584                   -1.04712        -170.431         -49.5131         -102.78         -49.5132         -102.78       -0.0160803         145.336
0.585                   -1.09058         -171.35         -49.3283         -104.02         -49.3284         -104.02       -0.0162327         145.261
0.586                   -1.13675        -172.283         -49.1402        -105.279         -49.1403        -105.278       -0.0163879         145.186
0.587                   -1.18582        -173.228          -48.949        -106.557          -48.949        -106.557        -0.016546         145.111
0.588                   -1.23801        -174.187         -48.7546        -107.856         -48.7546        -107.856       -0.0167069         145.036
0.589                   -1.29353        -175.159         -48.5571        -109.178         -48.5572        -109.178       -0.0168709         144.961
0.59                    -1.35263        -176.144         -48.3567        -110.524         -48.3568        -110.523        -0.017038         144.886
0.591                   -1.41556        -177.142         -48.1535        -111.894         -48.1535        -111.894       -0.0172083          144.81
0.592                   -1.48262        -178.153         -47.9475        -113.292         -47.9476        -113.291       -0.0173818         144.734
0.593                   -1.55409        -179.176         -47.7389        -114.717          -47.739        -114.717       -0.0175586         144.658
0.594                   -1.63031          179.79         -47.5279        -116.173          -47.528        -116.172       -0.0177389         144.582
0.595                   -1.71161         178.744         -47.3146        -117.659         -47.3147        -117.658       -0.0179227         144.506
0.596                   -1.79836         177.688         -47.0992        -119.178         -47.0993        -119.177       -0.0181101         144.429
0.597                   -1.89096         176.623          -46.882         -120.73          -46.882         -120.73       -0.0183011         144.352
0.598                   -1.98982         175.551         -46.6631        -122.319         -46.6631        -122.318       -0.0184959         144.276
0.599                   -2.09539         174.472         -46.4428        -123.944         -46.4428        -123.944       -0.0186945         144.199
0.6                     -2.20812         173.389         -46.2214        -125.608         -46.2214        -125.608       -0.0188969         144.121
0.601                   -2.32851         172.304         -45.9992        -127.312         -45.9992        -127.311       -0.0191033         144.044
0.602                   -2.45706         171.221         -45.7765        -129.057         -45.7765        -129.056       -0.0193137         143.966
0.603                    -2.5943         170.141         -45.5537        -130.844         -45.5538        -130.843       -0.0195281         143.888
0.604                   -2.74077          169.07         -45.3312        -132.674         -45.3313        -132.673       -0.0197465          143.81
0.605                   -2.89701         168.011         -45.1095        -134.548         -45.1095        -134.548       -0.0199691         143.732
0.606                   -3.06357          166.97         -44.8888        -136.467         -44.8888        -136.467       -0.0201957         143.654
0.607                   -3.24096         165.954         -44.6698        -138.432         -44.6698        -138.432       -0.0204265         143.575
0.608                    -3.4297         164.968         -44.4529        -140.442         -44.4529        -140.442       -0.0206614         143.496
0.609                   -3.63022         164.021         -44.2386        -142.499         -44.2386        -142.498       -0.0209004         143.417
0.61                     -3.8429         163.123         -44.0276          -144.6         -44.0276          -144.6       -0.0211435         143.338
0.611                   -4.06801         162.284         -43.8202        -146.746         -43.8202        -146.746       -0.0213906         143.258
0.612                   -4.30567         161.515         -43.6171        -148.936         -43.6171        -148.936       -0.0216417         143.179
0.613                   -4.55582         160.829         -43.4189        -151.168         -43.4189        -151.168       -0.0218967         143.099
0.614                   -4.81814         160.242         -43.2261        -153.441         -43.2261        -153.441       -0.0221556         143.019
0.615                   -5.09201         159.768         -43.0393        -155.752         -43.0392        -155.752       -0.0224183         142.939
0.616                   -5.37639         159.425         -42.8589        -158.099         -42.8589        -158.099       -0.0226846         142.858
0.617                   -5.66978         159.231         -42.6855        -160.478         -42.6855        -160.478       -0.0229546         142.777
0.618                   -5.97008         159.204         -42.5195        -162.887         -42.5195        -162.887        -0.023228         142.696
0.619                   -6.27452         159.361         -42.3614        -165.321         -42.3613        -165.321       -0.0235049         142.615
0.62                    -6.57958          159.72         -42.2114        -167.777         -42.2113        -167.777        -0.023785         142.534
0.621                   -6.88091         160.294         -42.0698        -170.249         -42.0698        -170.249       -0.0240684         142.452
0.622                   -7.17336         161.093         -41.9369        -172.734         -41.9369        -172.734       -0.0243548          142.37
0.623                   -7.45103          162.12         -41.8128        -175.226         -41.8128        -175.226       -0.0246441         142.288
0.624                   -7.70748         163.369         -41.6975        -177.721         -41.6975        -177.721       -0.0249364         142.206
0.625                   -7.93606         164.827         -41.5909         179.786         -41.5909         179.786       -0.0252315         142.123
0.626                   -8.13035         166.466         -41.4931           177.3         -41.4931           177.3       -0.0255293          142.04
0.627                   -8.28473         168.249         -41.4037         174.826         -41.4037         174.826       -0.0258298         141.957
0.628                   -8.39493         170.129         -41.3226         172.368         -41.3225         172.368        -0.026133         141.874
0.629                    -8.4585         172.051         -41.2493          169.93         -41.2493          169.93       -0.0264387          141.79
0.63                     -8.4751          173.96         -41.1835         167.515         -41.1835         167.515       -0.0267471         141.706
0.631                   -8.44649           175.8         -41.1247         165.129         -41.1247         165.129        -0.027058         141.622
0.632                   -8.37629         177.524         -41.0725         162.772         -41.0725         162.772       -0.0273716         141.538
0.633                   -8.26952         179.091         -41.0264         160.449         -41.0264         160.449       -0.0276879         141.453
0.634                   -8.13203        -179.527         -40.9857         158.161         -40.9857         158.161        -0.028007         141.368
0.635                      -7.97        -178.348         -40.9501          155.91         -40.9501          155.91       -0.0283288         141.282
0.636                   -7.78945         -177.38         -40.9188         153.698         -40.9188         153.698       -0.0286536         141.197
0.637                   -7.59593        -176.623         -40.8914         151.525         -40.8914         151.525       -0.0289815         141.111
0.638                   -7.39434        -176.072         -40.8673         149.392         -40.8673         149.392       -0.0293125         141.025
0.639                   -7.18881        -175.716         -40.8459           147.3         -40.8459           147.3       -0.0296468         140.938
0.64                    -6.98276        -175.542         -40.8269         145.248         -40.8269         145.248       -0.0299847         140.851
0.641                    -6.7789        -175.535         -40.8095         143.236         -40.8095         143.236       -0.0303262         140.764
0.642                    -6.5793        -175.682         -40.7935         141.264         -40.7935         141.264       -0.0306715         140.677
0.643                   -6.38556        -175.967         -40.7784         139.331         -40.7784         139.331        -0.031021         140.589
0.644                   -6.19879        -176.377         -40.7637         137.435         -40.7637         137.435       -0.0313746         140.501
0.645                   -6.01979        -176.899         -40.7491         135.576         -40.7491         135.576       -0.0317328         140.412
0.646                   -5.84905        -177.521         -40.7342         133.753         -40.7342         133.753       -0.0320956         140.323
0.647                   -5.68686        -178.232         -40.7187         131.965         -40.7187         131.965       -0.0324634         140.234
0.648                   -5.53333        -179.024         -40.7022         130.209         -40.7022         130.209       -0.0328363         140.145
0.649                   -5.38844        -179.888         -40.6846         128.484         -40.6846         128.484       -0.0332146         140.055
0.65                     -5.2521         179.185         -40.6656          126.79         -40.6656          126.79       -0.0335985         139.964
0.651                   -5.12412         178.199         -40.6449         125.124         -40.6449         125.124       -0.0339883         139.874
0.652                    -5.0043         177.161         -40.6224         123.484         -40.6224         123.484       -0.0343842         139.783
0.653                   -4.89237         176.076         -40.5979          121.87         -40.5979          121.87       -0.0347864         139.691
0.654                   -4.78807         174.948         -40.5711          120.28         -40.5711          120.28       -0.0351953         139.599
0.655                   -4.69113         173.781         -40.5421         118.711         -40.5421         118.711        -0.035611         139.507
0.656                   -4.60126         172.577         -40.5106         117.163         -40.5106         117.164       -0.0360338         139.414
0.657                   -4.51821         171.339         -40.4766         115.635         -40.4766         115.635       -0.0364639         139.321
0.658                    -4.4417          170.07           -40.44         114.123           -40.44         114.124       -0.0369017         139.228
0.659                   -4.37148         168.771         -40.4007         112.628         -40.4006         112.628       -0.0373473         139.134
0.66                    -4.30731         167.445         -40.3586         111.148         -40.3585         111.148       -0.0378011          139.04
0.661                   -4.24897         166.092         -40.3136          109.68         -40.3136          109.68       -0.0382632         138.945
0.662                   -4.19624         164.713         -40.2659         108.225         -40.2658         108.225       -0.0387339          138.85
0.663                   -4.14893         163.309         -40.2152         106.779         -40.2152          106.78       -0.0392136         138.754
0.664                   -4.10687         161.881         -40.1616         105.343         -40.1616         105.343       -0.0397024         138.658
0.665                   -4.06989         160.429         -40.1052         103.915         -40.1051         103.915       -0.0402006         138.562
0.666                   -4.03784         158.954         -40.0458         102.493         -40.0457         102.493       -0.0407086         138.465
0.667                    -4.0106         157.455         -39.9835         101.077         -39.9834         101.077       -0.0412265         138.367
0.668                   -3.98805         155.933         -39.9183         99.6646         -39.9183         99.6648       -0.0417546         138.269
0.669                   -3.97008         154.387         -39.8502         98.2553         -39.8502         98.2555       -0.0422933         138.171
0.67                    -3.95661         152.817         -39.7793         96.8477         -39.7793         96.8479       -0.0428428         138.072
0.671                   -3.94757         151.224         -39.7056         95.4409         -39.7055          95.441       -0.0434034         137.973
0.672                    -3.9429         149.606         -39.6291         94.0336          -39.629         94.0337       -0.0439753         137.873
0.673                   -3.94256         147.963         -39.5499         92.6248         -39.5498         92.6249        -0.044559         137.772
0.674                   -3.94651         146.295          -39.468         91.2135         -39.4679         91.2137       -0.0451547         137.671
0.675                   -3.95473           144.6         -39.3834         89.7987         -39.3834         89.7988       -0.0457626          137.57
0.676                   -3.96722         142.879         -39.2963         88.3794         -39.2963         88.3795       -0.0463832         137.468
0.677                   -3.98398          141.13         -39.2068         86.9546         -39.2067         86.9547       -0.0470168         137.365
0.678                   -4.00503         139.352         -39.1148         85.5233         -39.1147         85.5234       -0.0476636         137.262
0.679                   -4.03041         137.545         -39.0204         84.0848         -39.0203         84.0849        -0.048324         137.159
0.68                    -4.06014         135.708         -38.9238          82.638         -38.9237         82.6381       -0.0489984         137.054
0.681                   -4.09429         133.839         -38.8251         81.1822          -38.825         81.1823       -0.0496872          136.95
0.682                   -4.13292         131.938         -38.7243         79.7165         -38.7242         79.7166       -0.0503906         136.844
0.683                    -4.1761         130.003         -38.6215         78.2401         -38.6214         78.2401        -0.051109         136.738
0.684                   -4.22392         128.034         -38.5168         76.7522         -38.5167         76.7523        -0.051843         136.631
0.685                   -4.27648         126.028         -38.4104         75.2522         -38.4104         75.2522       -0.0525927         136.524
0.686                   -4.33388         123.985         -38.3024         73.7392         -38.3023         73.7392       -0.0533587         136.416
0.687                   -4.39624         121.902         -38.1929         72.2126         -38.1928         72.2126       -0.0541414         136.308
0.688                   -4.46368          119.78         -38.0821         70.6719          -38.082         70.6718       -0.0549411         136.199
0.689                   -4.53636         117.615           -37.97         69.1163         -37.9699         69.1162       -0.0557584         136.089
0.69                     -4.6144         115.407         -37.8568         67.5454         -37.8567         67.5454       -0.0565936         135.978
0.691                   -4.69796         113.153         -37.7426         65.9587         -37.7426         65.9586       -0.0574473         135.867
0.692                   -4.78721         110.852         -37.6277         64.3558         -37.6276         64.3556       -0.0583198         135.755
0.693                   -4.88231         108.501         -37.5122         62.7361         -37.5121          62.736       -0.0592118         135.642
0.694                   -4.98343           106.1         -37.3962         61.0995         -37.3961         61.0993       -0.0601237         135.529
0.695                   -5.09075         103.645         -37.2799         59.4456         -37.2798         59.4454       -0.0610561         135.415
0.696                   -5.20445         101.134         -37.1635         57.7743         -37.1634         57.7741       -0.0620094           135.3