! TOUCHSTONE file generated by CST MICROWAVE STUDIO
! Date and time: Sat Nov 14 19:59:45 2020
! Project name: Scenario_1_Planar_Body_Tissue_Out_of_Line.cst
! Parameters = {dy1=173; L_HA=400; Ltissue=700; MT=2.54; Rad_Dielectric=30; Rad_Lower=7.3; Rad_Upper=30; Wtissue=700; a_HA=580; a_WG=246; b_HA=500; b_WG=121; c_HA=0; c_WG=187; d_feed=85; dx1=693; h_feed=15; h_lower=18; h_upper=40; hfat=3; hgap=25; hmuscle=50; hskin=1.5}
! Header version: 2018
! Port assignment regex: !\s*Touchstone port\s*([0-9]+)\s*=\s*(CST MWS port|CST DS port)\s*([0-9]+|Zmin|Zmax)\s*\(\"(.*)\"\)(\s*mode\s*([0-9]+))?.*
! Touchstone port assignment:
! Touchstone port 1 = CST MWS port 1 ("")
! Touchstone port 2 = CST MWS port 2 ("")
# GHz S DB R 50
0.5                    -0.191088        -121.596         -61.9675        -177.628         -61.9679        -177.627      -0.00778748         151.151
0.501                  -0.191721        -122.009         -61.9175        -179.008         -61.9185        -179.006      -0.00784993         151.085
0.502                  -0.192411        -122.426         -61.8657         179.604         -61.8673         179.608      -0.00791291          151.02
0.503                  -0.193165        -122.845          -61.812         178.209         -61.8141         178.215      -0.00797642         150.955
0.504                  -0.193984        -123.268         -61.7562         176.807         -61.7589         176.814      -0.00804047         150.889
0.505                  -0.194875        -123.693         -61.6985         175.398         -61.7017         175.407      -0.00810508         150.824
0.506                  -0.195839        -124.122         -61.6387         173.983         -61.6424         173.993      -0.00817024         150.758
0.507                  -0.196883        -124.555         -61.5767         172.561         -61.5809         172.573      -0.00823597         150.693
0.508                  -0.198011         -124.99         -61.5126         171.132         -61.5172         171.146      -0.00830229         150.627
0.509                  -0.199228        -125.429         -61.4462         169.697         -61.4513         169.713       -0.0083692         150.561
0.51                   -0.200539        -125.872         -61.3775         168.256          -61.383         168.273      -0.00843672         150.495
0.511                   -0.20195        -126.318         -61.3065         166.808         -61.3124         166.827      -0.00850485         150.429
0.512                  -0.203468        -126.767          -61.233         165.355         -61.2394         165.375       -0.0085736         150.363
0.513                  -0.205097         -127.22         -61.1571         163.895         -61.1638         163.917        -0.008643         150.297
0.514                  -0.206845        -127.677         -61.0787         162.429         -61.0857         162.454      -0.00871304         150.231
0.515                  -0.208719        -128.138         -60.9977         160.958         -61.0051         160.984      -0.00878375         150.165
0.516                  -0.210726        -128.602         -60.9141         159.481         -60.9218         159.508      -0.00885513         150.098
0.517                  -0.212875         -129.07         -60.8278         157.998         -60.8358         158.027      -0.00892719         150.032
0.518                  -0.215174        -129.543         -60.7388          156.51          -60.747         156.541      -0.00899996         149.965
0.519                  -0.217631        -130.019          -60.647         155.016         -60.6554         155.048      -0.00907344         149.899
0.52                   -0.220256          -130.5         -60.5523         153.517          -60.561         153.551      -0.00914764         149.832
0.521                  -0.223059        -130.985         -60.4548         152.012         -60.4636         152.048      -0.00922258         149.765
0.522                  -0.226052        -131.474         -60.3543         150.502         -60.3633         150.539      -0.00929828         149.698
0.523                  -0.229245        -131.967         -60.2508         148.987           -60.26         149.025      -0.00937474         149.631
0.524                  -0.232651        -132.465         -60.1443         147.466         -60.1536         147.506      -0.00945199         149.564
0.525                  -0.236283        -132.968         -60.0347          145.94         -60.0441         145.981      -0.00953004         149.497
0.526                  -0.240155        -133.475         -59.9219         144.409         -59.9314         144.451      -0.00960889          149.43
0.527                  -0.244281        -133.988          -59.806         142.872         -59.8155         142.916      -0.00968858         149.362
0.528                  -0.248679        -134.505         -59.6868          141.33         -59.6963         141.374      -0.00976911         149.295
0.529                  -0.253364        -135.027         -59.5643         139.782         -59.5738         139.827       -0.0098505         149.227
0.53                   -0.258355        -135.554         -59.4384         138.228         -59.4479         138.275      -0.00993278          149.16
0.531                  -0.263672        -136.086         -59.3092         136.668         -59.3187         136.716       -0.0100159         149.092
0.532                  -0.269335        -136.624         -59.1765         135.103         -59.1859         135.152          -0.0101         149.024
0.533                  -0.275368        -137.167         -59.0404         133.531         -59.0497         133.581       -0.0101851         148.956
0.534                  -0.281795        -137.715         -58.9007         131.952         -58.9099         132.003        -0.010271         148.888
0.535                  -0.288641         -138.27         -58.7574         130.367         -58.7666         130.419        -0.010358          148.82
0.536                  -0.295935         -138.83         -58.6106         128.775         -58.6196         128.827       -0.0104459         148.752
0.537                  -0.303706        -139.396         -58.4601         127.175         -58.4689         127.228       -0.0105349         148.683
0.538                  -0.311988        -139.968         -58.3058         125.568         -58.3145         125.622       -0.0106249         148.615
0.539                  -0.320816        -140.546         -58.1479         123.952         -58.1564         124.006        -0.010716         148.546
0.54                   -0.330226        -141.131         -57.9862         122.328         -57.9944         122.382       -0.0108081         148.478
0.541                  -0.340261        -141.722         -57.8207         120.694         -57.8287         120.749       -0.0109014         148.409
0.542                  -0.350964        -142.319         -57.6513         119.051         -57.6591         119.106       -0.0109959          148.34
0.543                  -0.362382        -142.923         -57.4781         117.397         -57.4856         117.452       -0.0110915         148.271
0.544                  -0.374567        -143.534         -57.3009         115.732         -57.3082         115.788       -0.0111883         148.202
0.545                  -0.387574        -144.152         -57.1199         114.055         -57.1269         114.111       -0.0112863         148.133
0.546                  -0.401464        -144.777         -56.9349         112.366         -56.9416         112.421       -0.0113856         148.063
0.547                  -0.416301        -145.409         -56.7459         110.663         -56.7523         110.718       -0.0114862         147.994
0.548                  -0.432155        -146.048          -56.553         108.945         -56.5591         108.999       -0.0115882         147.924
0.549                  -0.449102        -146.694         -56.3561         107.212         -56.3618         107.266       -0.0116915         147.855
0.55                   -0.467224        -147.348         -56.1552         105.462         -56.1606         105.515       -0.0117962         147.785
0.551                   -0.48661        -148.009         -55.9504         103.694         -55.9554         103.747       -0.0119025         147.715
0.552                  -0.507355        -148.677         -55.7416         101.907         -55.7463         101.959       -0.0120102         147.645
0.553                  -0.529562        -149.353         -55.5288           100.1         -55.5332         100.151       -0.0121195         147.575
0.554                  -0.553342        -150.036         -55.3122         98.2705         -55.3163         98.3204       -0.0122304         147.505
0.555                  -0.578816        -150.726         -55.0917         96.4177         -55.0954         96.4665        -0.012343         147.434
0.556                   -0.60611        -151.423         -54.8675           94.54         -54.8708         94.5874       -0.0124573         147.364
0.557                  -0.635364        -152.127         -54.6395         92.6354         -54.6425         92.6815       -0.0125734         147.293
0.558                  -0.666724        -152.837         -54.4079         90.7024         -54.4106         90.7469       -0.0126913         147.222
0.559                  -0.700346        -153.553         -54.1729         88.7389         -54.1752         88.7818       -0.0128112         147.151
0.56                   -0.736398        -154.275         -53.9344         86.7429         -53.9365         86.7841       -0.0129331          147.08
0.561                  -0.775053        -155.001         -53.6928         84.7126         -53.6945         84.7518       -0.0130572         147.009
0.562                  -0.816496        -155.731         -53.4482         82.6456         -53.4496         82.6829       -0.0131833         146.938
0.563                  -0.860917        -156.465         -53.2008         80.5399         -53.2019         80.5751       -0.0133118         146.867
0.564                  -0.908512          -157.2         -52.9508         78.3931         -52.9517         78.4262       -0.0134426         146.795
0.565                   -0.95948        -157.936         -52.6986         76.2031         -52.6993         76.2339       -0.0135759         146.723
0.566                   -1.01402         -158.67         -52.4446         73.9675          -52.445          73.996       -0.0137117         146.652
0.567                   -1.07232        -159.401          -52.189         71.6841         -52.1892         71.7102       -0.0138503          146.58
0.568                   -1.13457        -160.127         -51.9323         69.3507         -51.9323         69.3743       -0.0139916         146.508
0.569                   -1.20093        -160.845          -51.675          66.965         -51.6748         66.9861       -0.0141358         146.435
0.57                    -1.27152        -161.552         -51.4176         64.5251         -51.4173         64.5437        -0.014283         146.363
0.571                   -1.34646        -162.245         -51.1607         62.0291         -51.1603         62.0451       -0.0144333          146.29
0.572                   -1.42577        -162.919          -50.905         59.4755         -50.9045          59.489       -0.0145868         146.218
0.573                   -1.50943        -163.571         -50.6511         56.8628         -50.6506         56.8738       -0.0147436         146.145
0.574                   -1.59732        -164.197         -50.3998         54.1902         -50.3993         54.1987       -0.0149037         146.072
0.575                   -1.68923         -164.79         -50.1519         51.4571         -50.1514         51.4633       -0.0150673         145.999
0.576                   -1.78479        -165.347         -49.9083         48.6636         -49.9079         48.6674       -0.0152343         145.926
0.577                   -1.88351        -165.862         -49.6699         45.8102         -49.6695         45.8119       -0.0154048         145.852
0.578                   -1.98474         -166.33         -49.4375         42.8983         -49.4372         42.8979       -0.0155788         145.779
0.579                   -2.08761        -166.747         -49.2121         39.9297          -49.212         39.9276       -0.0157561         145.705
0.58                    -2.19111        -167.107         -48.9947         36.9074         -48.9947         36.9036       -0.0159367         145.632
0.581                   -2.29402        -167.408         -48.7861         33.8348         -48.7863         33.8296       -0.0161204         145.558
0.582                   -2.39496        -167.649         -48.5872         30.7165         -48.5877         30.7101       -0.0163071         145.484
0.583                   -2.49244        -167.828         -48.3989         27.5576         -48.3995         27.5502       -0.0164964         145.409
0.584                   -2.58486        -167.947         -48.2218         24.3642         -48.2226         24.3562       -0.0166882         145.335
0.585                   -2.67063        -168.009         -48.0565          21.143         -48.0576         21.1345        -0.016882          145.26
0.586                   -2.74821        -168.022         -47.9036         17.9013         -47.9048         17.8926       -0.0170776         145.186
0.587                   -2.81621        -167.992         -47.7634         14.6469         -47.7648         14.6382       -0.0172746         145.111
0.588                   -2.87348        -167.929          -47.636         11.3877         -47.6376         11.3792       -0.0174726         145.036
0.589                   -2.91919        -167.846         -47.5215         8.13188         -47.5232         8.12391       -0.0176714         144.961
0.59                    -2.95284        -167.754         -47.4197         4.88762         -47.4216         4.88026       -0.0178706         144.886
0.591                   -2.97433        -167.666         -47.3304         1.66272         -47.3324          1.6561       -0.0180699          144.81
0.592                   -2.98394        -167.594         -47.2531        -1.53537         -47.2552        -1.54114       -0.0182691         144.735
0.593                   -2.98229        -167.551         -47.1872        -4.69977         -47.1894        -4.70462       -0.0184681         144.659
0.594                   -2.97029        -167.545         -47.1321        -7.82426         -47.1343        -7.82815       -0.0186668         144.583
0.595                   -2.94909        -167.587         -47.0869        -10.9034         -47.0891        -10.9063       -0.0188652         144.507
0.596                   -2.91997        -167.682         -47.0509        -13.9325          -47.053        -13.9345       -0.0190634         144.431
0.597                   -2.88429        -167.835          -47.023        -16.9078          -47.025        -16.9089       -0.0192613         144.354
0.598                    -2.8434         -168.05         -47.0023        -19.8264         -47.0043        -19.8266       -0.0194593         144.278
0.599                   -2.79863        -168.327          -46.988        -22.6861         -46.9899        -22.6855       -0.0196575         144.201
0.6                      -2.7512        -168.666         -46.9791        -25.4855         -46.9808        -25.4843       -0.0198561         144.124
0.601                   -2.70223        -169.067         -46.9746        -28.2241         -46.9762        -28.2222       -0.0200553         144.047
0.602                   -2.65269        -169.528         -46.9737        -30.9017         -46.9752        -30.8993       -0.0202555         143.969
0.603                   -2.60345        -170.046         -46.9755        -33.5189         -46.9769        -33.5162       -0.0204568         143.892
0.604                   -2.55522        -170.618         -46.9793        -36.0768         -46.9806        -36.0738       -0.0206597         143.814
0.605                    -2.5086         -171.24         -46.9844        -38.5768         -46.9856        -38.5736       -0.0208642         143.736
0.606                   -2.46409        -171.911         -46.9901        -41.0207         -46.9911        -41.0174       -0.0210707         143.657
0.607                   -2.42208        -172.627         -46.9957        -43.4106         -46.9966        -43.4072       -0.0212793         143.579
0.608                   -2.38287        -173.384         -47.0008        -45.7487         -47.0015        -45.7454       -0.0214904           143.5
0.609                   -2.34671        -174.181         -47.0047        -48.0375         -47.0054        -48.0343       -0.0217041         143.421
0.61                    -2.31378        -175.013         -47.0072        -50.2795         -47.0077        -50.2765       -0.0219207         143.342
0.611                    -2.2842         -175.88         -47.0078        -52.4774         -47.0082        -52.4745       -0.0221402         143.263
0.612                   -2.25809        -176.779         -47.0061        -54.6338         -47.0064        -54.6312       -0.0223629         143.183
0.613                    -2.2355        -177.707         -47.0019        -56.7514         -47.0021        -56.7491       -0.0225888         143.103
0.614                   -2.21648        -178.664         -46.9948        -58.8329          -46.995         -58.831       -0.0228183         143.023
0.615                   -2.20107        -179.647         -46.9848         -60.881         -46.9849        -60.8794       -0.0230513         142.943
0.616                   -2.18929         179.344         -46.9715        -62.8982         -46.9716         -62.897        -0.023288         142.862
0.617                   -2.18115         178.311         -46.9549        -64.8872         -46.9549        -64.8863       -0.0235285         142.782
0.618                   -2.17667         177.255         -46.9349        -66.8504         -46.9348        -66.8499       -0.0237729         142.701
0.619                   -2.17586         176.176         -46.9112        -68.7903         -46.9111        -68.7901       -0.0240213         142.619
0.62                    -2.17875         175.075         -46.8839        -70.7092         -46.8838        -70.7094       -0.0242739         142.538
0.621                   -2.18536         173.953          -46.853        -72.6095         -46.8528          -72.61       -0.0245306         142.456
0.622                   -2.19572         172.809         -46.8182        -74.4933         -46.8181        -74.4941       -0.0247917         142.374
0.623                   -2.20987         171.646         -46.7798        -76.3629         -46.7796         -76.364       -0.0250572         142.292
0.624                   -2.22787         170.461         -46.7376        -78.2202         -46.7375        -78.2216       -0.0253271         142.209
0.625                   -2.24977         169.257         -46.6917        -80.0674         -46.6916        -80.0689       -0.0256015         142.126
0.626                   -2.27566         168.032         -46.6422        -81.9062          -46.642         -81.908       -0.0258807         142.043
0.627                   -2.30561         166.787          -46.589        -83.7387         -46.5888        -83.7406       -0.0261645          141.96
0.628                   -2.33972         165.522         -46.5322        -85.5665         -46.5321        -85.5686       -0.0264531         141.876
0.629                   -2.37812         164.237         -46.4719        -87.3915         -46.4718        -87.3937       -0.0267467         141.792
0.63                    -2.42093         162.932         -46.4082        -89.2153         -46.4081        -89.2175       -0.0270452         141.708
0.631                   -2.46829         161.607         -46.3412        -91.0394         -46.3411        -91.0417       -0.0273487         141.624
0.632                   -2.52038         160.261          -46.271        -92.8654         -46.2709        -92.8678       -0.0276575         141.539
0.633                   -2.57735         158.895         -46.1976        -94.6948         -46.1976        -94.6972       -0.0279714         141.454
0.634                   -2.63942         157.509         -46.1213         -96.529         -46.1212        -96.5314       -0.0282907         141.369
0.635                    -2.7068         156.102         -46.0421        -98.3694          -46.042        -98.3717       -0.0286154         141.283
0.636                   -2.77973         154.674         -45.9602        -100.217         -45.9601        -100.219       -0.0289456         141.197
0.637                   -2.85846         153.226         -45.8757        -102.074         -45.8756        -102.076       -0.0292814         141.111
0.638                   -2.94326         151.758         -45.7887         -103.94         -45.7887        -103.942       -0.0296229         141.024
0.639                   -3.03445         150.268         -45.6996        -105.817         -45.6996        -105.819       -0.0299702         140.938
0.64                    -3.13234         148.759         -45.6083        -107.706         -45.6083        -107.708       -0.0303234         140.851
0.641                   -3.23729          147.23         -45.5151        -109.607         -45.5152        -109.609       -0.0306826         140.763
0.642                   -3.34966          145.68         -45.4203        -111.523         -45.4203        -111.524       -0.0310479         140.675
0.643                   -3.46987         144.112         -45.3239        -113.453         -45.3239        -113.454       -0.0314194         140.587
0.644                   -3.59835         142.524         -45.2262        -115.398         -45.2263        -115.399       -0.0317973         140.499
0.645                   -3.73556         140.919         -45.1274        -117.359         -45.1275         -117.36       -0.0321816          140.41
0.646                     -3.882         139.296         -45.0278        -119.336         -45.0278        -119.337       -0.0325724         140.321
0.647                   -4.03819         137.658         -44.9275         -121.33         -44.9275         -121.33       -0.0329698         140.231
0.648                    -4.2047         136.004         -44.8267        -123.341         -44.8267        -123.341       -0.0333741         140.142
0.649                   -4.38213         134.337         -44.7258        -125.369         -44.7258        -125.369       -0.0337852         140.051
0.65                    -4.57112         132.658         -44.6248        -127.414         -44.6248        -127.414       -0.0342034         139.961
0.651                   -4.77237         130.969         -44.5242        -129.477         -44.5242        -129.477       -0.0346286          139.87
0.652                   -4.98659         129.273         -44.4241        -131.557         -44.4241        -131.557       -0.0350612         139.779
0.653                   -5.21458         127.572         -44.3247        -133.654         -44.3247        -133.654       -0.0355012         139.687
0.654                   -5.45717          125.87         -44.2263        -135.767         -44.2263        -135.767       -0.0359487         139.595
0.655                   -5.71523          124.17         -44.1291        -137.896         -44.1291        -137.896       -0.0364038         139.503
0.656                   -5.98973         122.476         -44.0334        -140.041         -44.0333        -140.041       -0.0368668          139.41
0.657                   -6.28169         120.794         -43.9393          -142.2         -43.9393          -142.2       -0.0373377         139.317
0.658                   -6.59219         119.128         -43.8471        -144.373          -43.847        -144.373       -0.0378167         139.223
0.659                   -6.92242         117.486          -43.757        -146.559         -43.7569        -146.558       -0.0383039         139.129
0.66                    -7.27364         115.875         -43.6691        -148.756          -43.669        -148.755       -0.0387995         139.035
0.661                   -7.64721         114.303         -43.5837        -150.963         -43.5836        -150.963       -0.0393036          138.94
0.662                   -8.04462         112.782         -43.5009        -153.179         -43.5007        -153.179       -0.0398165         138.845
0.663                   -8.46747         111.322         -43.4207        -155.403         -43.4206        -155.402       -0.0403381         138.749
0.664                   -8.91748         109.938         -43.3435        -157.632         -43.3433        -157.632       -0.0408688         138.653
0.665                   -9.39653         108.647         -43.2691        -159.866          -43.269        -159.866       -0.0414087         138.556
0.666                   -9.90664         107.469         -43.1978        -162.102         -43.1977        -162.102       -0.0419579         138.459
0.667                     -10.45         106.429         -43.1296         -164.34         -43.1295        -164.339       -0.0425167         138.362
0.668                   -11.0288         105.557         -43.0644        -166.576         -43.0643        -166.576       -0.0430851         138.264
0.669                   -11.6453          104.89         -43.0024         -168.81         -43.0023         -168.81       -0.0436635         138.166
0.67                    -12.3019         104.473         -42.9434         -171.04         -42.9433        -171.039       -0.0442519         138.067
0.671                   -13.0004         104.366         -42.8875        -173.263         -42.8874        -173.263       -0.0448506         137.967
0.672                    -13.742          104.64         -42.8346        -175.479         -42.8345        -175.479       -0.0454598         137.867
0.673                   -14.5263         105.389         -42.7846        -177.686         -42.7845        -177.686       -0.0460797         137.767
0.674                   -15.3503         106.728         -42.7373        -179.882         -42.7373        -179.882       -0.0467106         137.666
0.675                    -16.206         108.798         -42.6928         177.934         -42.6927         177.935       -0.0473526         137.565
0.676                   -17.0774         111.766         -42.6508         175.764         -42.6507         175.765       -0.0480059         137.463
0.677                   -17.9356         115.805         -42.6111         173.609         -42.6111          173.61       -0.0486709          137.36
0.678                   -18.7346         121.057         -42.5736         171.471         -42.5736         171.471       -0.0493478         137.257
0.679                   -19.4093         127.549         -42.5382         169.349         -42.5382          169.35       -0.0500369         137.153
0.68                    -19.8845         135.092         -42.5045         167.246         -42.5046         167.247       -0.0507384         137.049
0.681                   -20.0976         143.223         -42.4725         165.162         -42.4726         165.163       -0.0514526         136.944
0.682                   -20.0282         151.282         -42.4419         163.098          -42.442         163.098       -0.0521798         136.839
0.683                   -19.7089         158.643         -42.4125         161.054         -42.4125         161.055       -0.0529203         136.733
0.684                   -19.2074         164.907         -42.3841         159.031         -42.3841         159.032       -0.0536746         136.627
0.685                    -18.598         169.947         -42.3564         157.029         -42.3564          157.03       -0.0544428         136.519
0.686                   -17.9408         173.826         -42.3292         155.049         -42.3293          155.05       -0.0552254         136.412
0.687                   -17.2771         176.699         -42.3024         153.091         -42.3025         153.092       -0.0560228         136.303
0.688                   -16.6316         178.738         -42.2757         151.154         -42.2757         151.155       -0.0568353         136.194
0.689                   -16.0178        -179.897         -42.2489         149.239         -42.2489          149.24       -0.0576633         136.084
0.69                     -15.442        -179.073         -42.2217         147.346         -42.2218         147.347       -0.0585073         135.974
0.691                    -14.906        -178.682         -42.1941         145.474         -42.1942         145.475       -0.0593677         135.863
0.692                   -14.4096         -178.64         -42.1658         143.623         -42.1658         143.624       -0.0602449         135.751
0.693                   -13.9511        -178.879         -42.1365         141.793         -42.1366         141.794       -0.0611396         135.638
0.694                   -13.5284        -179.347         -42.1063         139.983         -42.1063         139.984        -0.062052         135.525
0.695                   -13.1391         179.997         -42.0747         138.193         -42.0748         138.194       -0.0629828         135.411
0.696                   -12.7807         179.185         -42.0418         136.422         -42.0419         136.423       -0.0639326         135.296