! TOUCHSTONE file generated by CST MICROWAVE STUDIO
! Date and time: Mon Nov 30 08:37:13 2020
! Project name: Scenario_1_Planar_Body_Tissue_Out_of_Line.cst
! Parameters = {dy1=-173; L_HA=400; Ltissue=700; MT=2.54; Rad_Dielectric=30; Rad_Lower=7.3; Rad_Upper=30; Wtissue=700; a_HA=580; a_WG=246; b_HA=500; b_WG=121; c_HA=0; c_WG=187; d_feed=85; dx1=866; h_feed=15; h_lower=18; h_upper=40; hfat=3; hgap=25; hmuscle=50; hskin=1.5}
! Header version: 2018
! Port assignment regex: !\s*Touchstone port\s*([0-9]+)\s*=\s*(CST MWS port|CST DS port)\s*([0-9]+|Zmin|Zmax)\s*\(\"(.*)\"\)(\s*mode\s*([0-9]+))?.*
! Touchstone port assignment:
! Touchstone port 1 = CST MWS port 1 ("")
! Touchstone port 2 = CST MWS port 2 ("")
# GHz S DB R 50
0.5                    -0.110544        -122.109         -64.1441         100.564         -64.1447         100.566      -0.00751842         151.158
0.501                  -0.120877        -122.494         -63.6254         98.2576         -63.6009         98.3064      -0.00759607         151.093
0.502                  -0.131101        -122.881         -63.1128         95.8419         -63.0635         95.9244       -0.0076741         151.027
0.503                  -0.141217         -123.27          -62.607         93.3118         -62.5334         93.4149      -0.00775251         150.962
0.504                  -0.151228        -123.661         -62.1092         90.6628         -62.0118         90.7728       -0.0078313         150.897
0.505                  -0.161137        -124.054         -61.6208         87.8913         -61.5002         87.9939      -0.00791049         150.831
0.506                  -0.170948         -124.45         -61.1432         84.9945         -61.0003          85.075      -0.00799007         150.766
0.507                  -0.180662        -124.848          -60.678         81.9706         -60.5139         82.0143      -0.00807007           150.7
0.508                  -0.190283        -125.249         -60.2273         78.8197         -60.0433         78.8117      -0.00815049         150.634
0.509                  -0.199813        -125.651         -59.7929         75.5435         -59.5907         75.4693      -0.00823133         150.569
0.51                   -0.209256        -126.056          -59.377         72.1462         -59.1585          71.992       -0.0083126         150.503
0.511                  -0.218615        -126.464         -58.9818         68.6341         -58.7492         68.3873      -0.00839431         150.437
0.512                  -0.227893        -126.874         -58.6094         65.0165         -58.3654         64.6664      -0.00847647         150.371
0.513                  -0.237093        -127.287         -58.2618         61.3054         -58.0091         60.8435      -0.00855909         150.305
0.514                  -0.246219        -127.702         -57.9407         57.5154         -57.6825          56.936      -0.00864217         150.239
0.515                  -0.255274         -128.12         -57.6476         53.6636          -57.387         52.9643      -0.00872573         150.172
0.516                  -0.264261        -128.541         -57.3836         49.7688         -57.1236         48.9506      -0.00880978         150.106
0.517                  -0.273184        -128.965          -57.149         45.8515         -56.8929         44.9189      -0.00889432          150.04
0.518                  -0.282047        -129.391          -56.944         41.9326         -56.6946         40.8931      -0.00897936         149.973
0.519                  -0.290854         -129.82          -56.768         38.0327         -56.5278         36.8969      -0.00906491         149.906
0.52                   -0.299608        -130.252         -56.6201         34.1715         -56.3912         32.9519      -0.00915098          149.84
0.521                  -0.308315        -130.688         -56.4986         30.3671         -56.2828         29.0779      -0.00923759         149.773
0.522                  -0.316977        -131.126         -56.4018         26.6352         -56.2003         25.2914      -0.00932475         149.706
0.523                  -0.325599        -131.567         -56.3276          22.989         -56.1411         21.6058      -0.00941245         149.639
0.524                  -0.334187        -132.012         -56.2736          19.439         -56.1025          18.031      -0.00950072         149.572
0.525                  -0.342744        -132.459         -56.2375         15.9929         -56.0817          14.574      -0.00958957         149.505
0.526                  -0.351276         -132.91         -56.2167         12.6557          -56.076         11.2385      -0.00967901         149.438
0.527                  -0.359788        -133.364         -56.2091         9.43024          -56.083         8.02579      -0.00976904         149.371
0.528                  -0.368284        -133.822         -56.2124         6.31715         -56.1001         4.93515      -0.00985969         149.303
0.529                  -0.376771        -134.283         -56.2246         3.31538         -56.1252         1.96396      -0.00995096         149.236
0.53                   -0.385255        -134.748         -56.2437        0.422517         -56.1564       -0.891646       -0.0100429         149.168
0.531                   -0.39374        -135.216         -56.2681        -2.36493         -56.1919        -3.63651       -0.0101354         149.101
0.532                  -0.402234        -135.688         -56.2963        -5.05125         -56.2302        -6.27613       -0.0102286         149.033
0.533                  -0.410743        -136.164          -56.327        -7.64124         -56.2701        -8.81637       -0.0103225         148.965
0.534                  -0.419274        -136.644          -56.359        -10.1401         -56.3103        -11.2633       -0.0104171         148.897
0.535                  -0.427834        -137.128         -56.3913         -12.553         -56.3501        -13.6231       -0.0105124         148.829
0.536                  -0.436431        -137.615         -56.4231        -14.8855         -56.3885        -15.9017       -0.0106084         148.761
0.537                  -0.445072        -138.107         -56.4537        -17.1428          -56.425         -18.105       -0.0107051         148.692
0.538                  -0.453766        -138.603         -56.4824        -19.3302          -56.459        -20.2387       -0.0108026         148.624
0.539                  -0.462522        -139.103         -56.5088        -21.4526         -56.4899        -22.3081       -0.0109008         148.556
0.54                   -0.471348        -139.608         -56.5325        -23.5149         -56.5176        -24.3183       -0.0109998         148.487
0.541                  -0.480255        -140.117          -56.553        -25.5215         -56.5415        -26.2741       -0.0110996         148.418
0.542                  -0.489252         -140.63         -56.5701         -27.477         -56.5616          -28.18       -0.0112002          148.35
0.543                   -0.49835        -141.148         -56.5835        -29.3852         -56.5777        -30.0403       -0.0113017         148.281
0.544                  -0.507561        -141.671         -56.5931        -31.2502         -56.5895        -31.8588       -0.0114039         148.212
0.545                  -0.516897        -142.199         -56.5987        -33.0755         -56.5969        -33.6392       -0.0115071         148.143
0.546                  -0.526369        -142.732         -56.6003        -34.8644            -56.6         -35.385       -0.0116111         148.073
0.547                  -0.535993         -143.27         -56.5976        -36.6202         -56.5986        -37.0994        -0.011716         148.004
0.548                  -0.545781        -143.813         -56.5906        -38.3458         -56.5926        -38.7853       -0.0118218         147.935
0.549                  -0.555749        -144.361         -56.5793         -40.044         -56.5821        -40.4455       -0.0119286         147.865
0.55                   -0.565913        -144.915         -56.5636        -41.7174          -56.567        -42.0826       -0.0120363         147.795
0.551                   -0.57629        -145.475         -56.5436        -43.3684         -56.5474         -43.699        -0.012145         147.726
0.552                  -0.586898         -146.04         -56.5191        -44.9994         -56.5232        -45.2969       -0.0122547         147.656
0.553                  -0.597756        -146.611         -56.4902        -46.6126         -56.4945        -46.8786       -0.0123654         147.586
0.554                  -0.608885        -147.187          -56.457        -48.2098         -56.4612         -48.446       -0.0124772         147.516
0.555                  -0.620306         -147.77         -56.4193        -49.7931         -56.4235        -50.0009         -0.01259         147.445
0.556                  -0.632042         -148.36         -56.3772        -51.3642         -56.3812        -51.5452       -0.0127039         147.375
0.557                  -0.644119        -148.955         -56.3307        -52.9249         -56.3345        -53.0805       -0.0128189         147.305
0.558                  -0.656562        -149.557         -56.2799        -54.4768         -56.2833        -54.6084       -0.0129351         147.234
0.559                  -0.669401        -150.166         -56.2247        -56.0214         -56.2277        -56.1305       -0.0130524         147.163
0.56                   -0.682665        -150.782         -56.1652        -57.5603         -56.1678        -57.6481       -0.0131709         147.092
0.561                  -0.696386        -151.404         -56.1014        -59.0948         -56.1035        -59.1626       -0.0132907         147.021
0.562                    -0.7106        -152.034         -56.0333        -60.6264         -56.0349        -60.6754       -0.0134117          146.95
0.563                  -0.725342        -152.671          -55.961        -62.1562          -55.962        -62.1878       -0.0135339         146.879
0.564                  -0.740654        -153.316         -55.8844        -63.6857         -55.8848        -63.7009       -0.0136575         146.808
0.565                  -0.756578        -153.968         -55.8036        -65.2159         -55.8034        -65.2161       -0.0137825         146.736
0.566                  -0.773159        -154.628         -55.7187        -66.7482         -55.7178        -66.7343       -0.0139088         146.664
0.567                  -0.790447        -155.296         -55.6296        -68.2837         -55.6281        -68.2568       -0.0140365         146.593
0.568                  -0.808495        -155.973         -55.5363        -69.8236         -55.5342        -69.7848       -0.0141656         146.521
0.569                  -0.827359        -156.658          -55.439        -71.3689         -55.4362        -71.3192       -0.0142963         146.449
0.57                     -0.8471        -157.351         -55.3376        -72.9208         -55.3342        -72.8612       -0.0144284         146.376
0.571                  -0.867785        -158.053         -55.2321        -74.4803         -55.2281        -74.4118       -0.0145622         146.304
0.572                  -0.889484        -158.763         -55.1227        -76.0487          -55.118        -75.9722       -0.0146975         146.232
0.573                  -0.912274        -159.483         -55.0093        -77.6269         -55.0039        -77.5433       -0.0148345         146.159
0.574                  -0.936236        -160.212         -54.8919        -79.2161          -54.886        -79.1263       -0.0149731         146.086
0.575                  -0.961459         -160.95         -54.7707        -80.8173         -54.7641        -80.7221       -0.0151135         146.013
0.576                  -0.988037        -161.698         -54.6456        -82.4317         -54.6385        -82.3319       -0.0152557          145.94
0.577                   -1.01607        -162.455         -54.5167        -84.0603         -54.5091        -83.9567       -0.0153997         145.867
0.578                   -1.04568        -163.222         -54.3841        -85.7043         -54.3759        -85.5977       -0.0155456         145.794
0.579                   -1.07697        -163.998         -54.2478        -87.3647         -54.2391        -87.2558       -0.0156935          145.72
0.58                    -1.11008        -164.784         -54.1078        -89.0427         -54.0987        -88.9322       -0.0158433         145.646
0.581                   -1.14514        -165.579         -53.9643        -90.7393         -53.9547         -90.628       -0.0159952         145.572
0.582                    -1.1823        -166.384         -53.8174        -92.4559         -53.8074        -92.3444       -0.0161492         145.498
0.583                   -1.22171        -167.198          -53.667        -94.1935         -53.6566        -94.0823       -0.0163053         145.424
0.584                   -1.26355        -168.022         -53.5133        -95.9533         -53.5026        -95.8431       -0.0164637          145.35
0.585                   -1.30799        -168.854         -53.3565        -97.7364         -53.3455        -97.6278       -0.0166244         145.275
0.586                   -1.35523        -169.695         -53.1965        -99.5441         -53.1853        -99.4375       -0.0167875         145.201
0.587                   -1.40546        -170.543         -53.0336        -101.377         -53.0222        -101.274        -0.016953         145.126
0.588                   -1.45891        -171.399         -52.8679        -103.238         -52.8563        -103.137        -0.017121         145.051
0.589                   -1.51581        -172.262         -52.6995        -105.126         -52.6878        -105.029       -0.0172916         144.976
0.59                    -1.57637         -173.13         -52.5286        -107.044         -52.5169        -106.951       -0.0174648         144.901
0.591                   -1.64086        -174.002         -52.3553        -108.992         -52.3437        -108.903       -0.0176408         144.825
0.592                   -1.70953        -174.877           -52.18        -110.972         -52.1684        -110.887       -0.0178196         144.749
0.593                   -1.78263        -175.754         -52.0027        -112.985         -51.9912        -112.905       -0.0180013         144.673
0.594                   -1.86042         -176.63         -51.8238        -115.031         -51.8125        -114.956       -0.0181859         144.597
0.595                   -1.94317        -177.502         -51.6434        -117.112         -51.6324        -117.043       -0.0183735         144.521
0.596                   -2.03111         -178.37         -51.4618        -119.229         -51.4511        -119.165       -0.0185643         144.445
0.597                   -2.12447        -179.228         -51.2794        -121.383         -51.2691        -121.324       -0.0187582         144.368
0.598                   -2.22347         179.925         -51.0965        -123.574         -51.0866         -123.52       -0.0189554         144.291
0.599                   -2.32826         179.095         -50.9133        -125.803         -50.9039        -125.755       -0.0191559         144.214
0.6                     -2.43896         178.285         -50.7303         -128.07         -50.7214        -128.028       -0.0193597         144.137
0.601                   -2.55562         177.501         -50.5477        -130.376         -50.5395        -130.339        -0.019567          144.06
0.602                   -2.67819         176.748         -50.3661        -132.721         -50.3585         -132.69       -0.0197777         143.982
0.603                   -2.80652         176.032         -50.1857        -135.106         -50.1789        -135.079        -0.019992         143.905
0.604                   -2.94033         175.358         -50.0071        -137.529          -50.001        -137.507       -0.0202098         143.827
0.605                   -3.07918         174.735         -49.8306         -139.99         -49.8253        -139.972       -0.0204312         143.749
0.606                   -3.22245         174.168         -49.6566        -142.489         -49.6522        -142.475       -0.0206562          143.67
0.607                   -3.36933         173.664         -49.4857        -145.024         -49.4821        -145.014       -0.0208848         143.592
0.608                   -3.51876         173.229         -49.3182        -147.594         -49.3155        -147.587       -0.0211169         143.513
0.609                   -3.66947          172.87         -49.1545        -150.198         -49.1528        -150.194       -0.0213527         143.434
0.61                    -3.81995          172.59         -48.9951        -152.833         -48.9943        -152.831        -0.021592         143.355
0.611                   -3.96845         172.394         -48.8404        -155.498         -48.8404        -155.498       -0.0218348         143.276
0.612                   -4.11307         172.282         -48.6907        -158.189         -48.6916         -158.19       -0.0220811         143.196
0.613                   -4.25173         172.253         -48.5463        -160.904         -48.5481        -160.907       -0.0223308         143.116
0.614                    -4.3823         172.305         -48.4076        -163.641         -48.4102        -163.643       -0.0225839         143.036
0.615                   -4.50269         172.431         -48.2747        -166.395         -48.2781        -166.397       -0.0228404         142.956
0.616                    -4.6109         172.621         -48.1479        -169.163          -48.152        -169.165       -0.0231001         142.876
0.617                   -4.70521         172.865         -48.0273        -171.942         -48.0322        -171.943        -0.023363         142.795
0.618                   -4.78421         173.147         -47.9131        -174.729         -47.9185        -174.727       -0.0236291         142.714
0.619                   -4.84693         173.452         -47.8051        -177.518         -47.8111        -177.515       -0.0238982         142.633
0.62                     -4.8929         173.763         -47.7035         179.693         -47.7099         179.698       -0.0241705         142.552
0.621                   -4.92213         174.062          -47.608         176.909         -47.6148         176.916       -0.0244457          142.47
0.622                   -4.93515         174.333         -47.5186         174.132         -47.5257         174.141       -0.0247239         142.388
0.623                   -4.93293         174.562         -47.4351         171.366         -47.4423         171.378       -0.0250052         142.306
0.624                   -4.91678         174.733         -47.3571         168.615         -47.3644         168.629       -0.0252894         142.224
0.625                   -4.88832         174.837         -47.2843          165.88         -47.2918         165.897       -0.0255766         142.141
0.626                   -4.84931         174.864         -47.2166         163.166          -47.224         163.185       -0.0258668         142.058
0.627                    -4.8016          174.81         -47.1533         160.475         -47.1606         160.496       -0.0261602         141.975
0.628                   -4.74704         174.669         -47.0943         157.807         -47.1014         157.831       -0.0264566         141.892
0.629                   -4.68739          174.44         -47.0389         155.166         -47.0458         155.192       -0.0267563         141.808
0.63                    -4.62431         174.124         -46.9868         152.553         -46.9935          152.58       -0.0270593         141.724
0.631                   -4.55929         173.721         -46.9376         149.969          -46.944         149.996       -0.0273658          141.64
0.632                   -4.49366         173.234         -46.8908         147.414         -46.8968         147.442       -0.0276757         141.556
0.633                    -4.4286         172.667         -46.8459         144.889         -46.8515         144.918       -0.0279893         141.471
0.634                   -4.36508         172.022         -46.8025         142.394         -46.8077         142.424       -0.0283067         141.386
0.635                   -4.30396         171.305         -46.7602         139.929          -46.765         139.959        -0.028628           141.3
0.636                   -4.24593         170.518         -46.7185         137.495          -46.723         137.524       -0.0289534         141.215
0.637                   -4.19158         169.666         -46.6772         135.089         -46.6812         135.118       -0.0292831         141.129
0.638                   -4.14136         168.752         -46.6357         132.712         -46.6393          132.74       -0.0296172         141.043
0.639                   -4.09567         167.781         -46.5938         130.362          -46.597          130.39       -0.0299558         140.956
0.64                    -4.05482         166.755         -46.5511         128.038         -46.5539         128.065       -0.0302992         140.869
0.641                   -4.01907         165.677         -46.5073          125.74         -46.5098         125.765       -0.0306476         140.782
0.642                   -3.98861         164.551         -46.4622         123.465         -46.4643         123.488        -0.031001         140.694
0.643                   -3.96363         163.378         -46.4155         121.211         -46.4173         121.233       -0.0313597         140.607
0.644                   -3.94426          162.16          -46.367         118.979         -46.3684         118.999       -0.0317239         140.518
0.645                   -3.93066           160.9         -46.3165         116.764         -46.3176         116.783       -0.0320938          140.43
0.646                   -3.92294         159.599         -46.2637         114.567         -46.2647         114.584       -0.0324695         140.341
0.647                   -3.92122         158.259         -46.2087         112.385         -46.2094           112.4       -0.0328512         140.252
0.648                   -3.92563          156.88         -46.1512         110.216         -46.1517         110.229       -0.0332391         140.162
0.649                   -3.93631         155.463         -46.0912         108.058         -46.0915         108.069       -0.0336334         140.072
0.65                     -3.9534         154.009         -46.0285          105.91         -46.0287         105.919       -0.0340343         139.982
0.651                   -3.97707         152.519         -45.9632          103.77         -45.9633         103.777        -0.034442         139.891
0.652                   -4.00748         150.994         -45.8953         101.635         -45.8952         101.641       -0.0348566           139.8
0.653                   -4.04485         149.433         -45.8246         99.5037         -45.8245         99.5079       -0.0352784         139.709
0.654                    -4.0894         147.836         -45.7513         97.3746         -45.7511         97.3773       -0.0357076         139.617
0.655                   -4.14138         146.204         -45.6754         95.2457         -45.6752          95.247       -0.0361443         139.525
0.656                   -4.20107         144.537         -45.5969         93.1151         -45.5967         93.1152       -0.0365887         139.432
0.657                   -4.26879         142.835          -45.516         90.9812         -45.5158         90.9802       -0.0370412         139.339
0.658                   -4.34487         141.097         -45.4327         88.8422         -45.4325         88.8403       -0.0375017         139.246
0.659                   -4.42971         139.324         -45.3472         86.6966          -45.347         86.6939       -0.0379706         139.152
0.66                    -4.52372         137.516         -45.2596         84.5428         -45.2595         84.5394       -0.0384481         139.058
0.661                   -4.62736         135.672         -45.1701         82.3794           -45.17         82.3755       -0.0389344         138.963
0.662                   -4.74114         133.793         -45.0789          80.205         -45.0789         80.2008       -0.0394297         138.868
0.663                   -4.86562         131.877         -44.9862         78.0184         -44.9862         78.0139       -0.0399341         138.773
0.664                   -5.00139         129.927         -44.8922         75.8184         -44.8923         75.8138        -0.040448         138.677
0.665                   -5.14912          127.94         -44.7972         73.6041         -44.7973         73.5995       -0.0409716         138.581
0.666                   -5.30953         125.918         -44.7014         71.3744         -44.7015           71.37        -0.041505         138.484
0.667                   -5.48339         123.862          -44.605         69.1288         -44.6051         69.1246       -0.0420486         138.386
0.668                   -5.67156          121.77         -44.5084         66.8667         -44.5085         66.8628       -0.0426025         138.289
0.669                   -5.87496         119.644         -44.4118         64.5876         -44.4119         64.5841        -0.043167          138.19
0.67                    -6.09461         117.485         -44.3156         62.2913         -44.3157         62.2882       -0.0437423         138.092
0.671                    -6.3316         115.293           -44.22         59.9778           -44.22         59.9752       -0.0443287         137.992
0.672                   -6.58715         113.069         -44.1253         57.6472         -44.1254         57.6452       -0.0449264         137.893
0.673                   -6.86258         110.815         -44.0319            55.3         -44.0319         55.2985       -0.0455358         137.793
0.674                   -7.15935         108.532           -43.94         52.9367           -43.94         52.9357       -0.0461569         137.692
0.675                   -7.47907         106.222           -43.85          50.558         -43.8499         50.5575       -0.0467902         137.591
0.676                   -7.82355         103.887         -43.7621         48.1649          -43.762         48.1649       -0.0474359         137.489
0.677                   -8.19479         101.529         -43.6767         45.7586         -43.6764          45.759       -0.0480942         137.387
0.678                   -8.59507         99.1507         -43.5938         43.3405         -43.5935         43.3413       -0.0487654         137.284
0.679                   -9.02696         96.7551         -43.5139         40.9121         -43.5135         40.9132       -0.0494498          137.18
0.68                    -9.49344         94.3456         -43.4371         38.4751         -43.4366         38.4764       -0.0501478         137.076
0.681                   -9.99796          91.926         -43.3635         36.0314         -43.3629         36.0329       -0.0508595         136.972
0.682                   -10.5446         89.5007         -43.2934          33.583         -43.2927         33.5846       -0.0515852         136.867
0.683                   -11.1381         87.0748         -43.2269         31.1319         -43.2261         31.1335       -0.0523254         136.761
0.684                   -11.7845         84.6544          -43.164         28.6804         -43.1632          28.682       -0.0530802         136.655
0.685                   -12.4908         82.2468         -43.1049         26.2308          -43.104         26.2322       -0.0538499         136.548
0.686                   -13.2662         79.8611         -43.0494         23.7852         -43.0485         23.7865        -0.054635          136.44
0.687                   -14.1222         77.5088         -42.9977         21.3459         -42.9967          21.347       -0.0554356         136.332
0.688                   -15.0739         75.2058         -42.9497         18.9153         -42.9487         18.9162       -0.0562522         136.223
0.689                   -16.1421         72.9744         -42.9053         16.4955         -42.9042         16.4961        -0.057085         136.114
0.69                    -17.3552          70.848         -42.8643         14.0886         -42.8632         14.0889       -0.0579344         136.004
0.691                   -18.7553         68.8807         -42.8266         11.6967         -42.8256         11.6967       -0.0588007         135.893
0.692                   -20.4072         67.1681         -42.7921         9.32162         -42.7911          9.3213       -0.0596844         135.782
0.693                   -22.4181         65.8981         -42.7606          6.9652         -42.7596         6.96458       -0.0605857         135.669
0.694                   -24.9859         65.5039         -42.7318         4.62904         -42.7308         4.62815       -0.0615051         135.556
0.695                   -28.5338         67.2556         -42.7054          2.3146         -42.7045         2.31348       -0.0624429         135.443
0.696                   -34.1927         76.9568         -42.6813       0.0231688         -42.6805       0.0218491       -0.0633996         135.329