! TOUCHSTONE file generated by CST MICROWAVE STUDIO
! Date and time: Tue Nov 17 07:11:23 2020
! Project name: Scenario_1_Planar_Body_Tissue_Out_of_Line.cst
! Header version: 2018
! Port assignment regex: !\s*Touchstone port\s*([0-9]+)\s*=\s*(CST MWS port|CST DS port)\s*([0-9]+|Zmin|Zmax)\s*\(\"(.*)\"\)(\s*mode\s*([0-9]+))?.*
! Touchstone port assignment:
! Touchstone port 1 = CST MWS port 1 ("")
! Touchstone port 2 = CST MWS port 2 ("")
# GHz S DB R 50
0.5                    -0.152543        -121.623         -64.5371        -21.1069         -64.5374        -21.1059      -0.00766165         151.149
0.501                  -0.154616        -122.057         -64.5366        -23.1747         -64.5239        -23.1613      -0.00772659         151.084
0.502                  -0.156777        -122.493         -64.5269        -25.2261         -64.5029        -25.2011      -0.00779212         151.018
0.503                  -0.159034        -122.932         -64.5081        -27.2615         -64.4745        -27.2256      -0.00785825         150.953
0.504                   -0.16139        -123.374         -64.4805         -29.281         -64.4386        -29.2352      -0.00792497         150.887
0.505                  -0.163854        -123.819         -64.4441         -31.285         -64.3954        -31.2302      -0.00799231         150.822
0.506                  -0.166431        -124.267         -64.3993        -33.2739         -64.3449        -33.2111      -0.00806027         150.756
0.507                   -0.16913        -124.719         -64.3461        -35.2479         -64.2872        -35.1782      -0.00812885         150.691
0.508                  -0.171958        -125.174         -64.2847        -37.2077         -64.2224        -37.1322      -0.00819807         150.625
0.509                  -0.174925        -125.633         -64.2154        -39.1537         -64.1506        -39.0736      -0.00826794         150.559
0.51                   -0.178039        -126.095         -64.1382        -41.0866         -64.0718        -41.0029      -0.00833846         150.493
0.511                  -0.181311        -126.561         -64.0534         -43.007          -63.986        -42.9209      -0.00840964         150.427
0.512                  -0.184753         -127.03          -63.961        -44.9157         -63.8935        -44.8281       -0.0084815         150.361
0.513                  -0.188376        -127.503         -63.8613        -46.8135         -63.7942        -46.7255      -0.00855405         150.295
0.514                  -0.192194        -127.981         -63.7543        -48.7012         -63.6881        -48.6138      -0.00862729         150.228
0.515                  -0.196222        -128.462         -63.6402          -50.58         -63.5755         -50.494      -0.00870125         150.162
0.516                  -0.200474        -128.947         -63.5191        -52.4507         -63.4563        -52.3669      -0.00877593         150.096
0.517                  -0.204969        -129.436         -63.3911        -54.3146         -63.3305        -54.2337      -0.00885135         150.029
0.518                  -0.209725         -129.93         -63.2564        -56.1727         -63.1983        -56.0954      -0.00892753         149.963
0.519                  -0.214763        -130.428         -63.1149        -58.0263         -63.0597        -57.9532      -0.00900448         149.896
0.52                   -0.220104        -130.931         -62.9669        -59.8769         -62.9147        -59.8083      -0.00908222         149.829
0.521                  -0.225775        -131.439         -62.8124        -61.7258         -62.7633        -61.6621      -0.00916077         149.762
0.522                  -0.231801        -131.951         -62.6514        -63.5744         -62.6057         -63.516      -0.00924016         149.695
0.523                  -0.238212        -132.468         -62.4841        -65.4245         -62.4419        -65.3715       -0.0093204         149.628
0.524                   -0.24504         -132.99         -62.3105        -67.2777         -62.2718        -67.2302      -0.00940153         149.561
0.525                  -0.252322        -133.517         -62.1307        -69.1357         -62.0956        -69.0937      -0.00948356         149.494
0.526                  -0.260096        -134.049         -61.9447        -71.0003         -61.9132        -70.9639      -0.00956654         149.426
0.527                  -0.268405        -134.587         -61.7527        -72.8737         -61.7247        -72.8425       -0.0096505         149.359
0.528                  -0.277296         -135.13         -61.5546        -74.7578         -61.5302        -74.7317      -0.00973547         149.291
0.529                  -0.286821        -135.679         -61.3506        -76.6547         -61.3297        -76.6335      -0.00982149         149.224
0.53                   -0.297038        -136.233         -61.1406        -78.5669         -61.1232        -78.5501      -0.00990861         149.156
0.531                  -0.308008        -136.793         -60.9248        -80.4967         -60.9107         -80.484      -0.00999689         149.088
0.532                    -0.3198        -137.359         -60.7033        -82.4466         -60.6924        -82.4375       -0.0100864          149.02
0.533                   -0.33249         -137.93          -60.476        -84.4193         -60.4683        -84.4133       -0.0101771         148.952
0.534                   -0.34616        -138.508         -60.2433        -86.4176         -60.2386        -86.4142       -0.0102692         148.884
0.535                  -0.360901        -139.091          -60.005        -88.4445         -60.0032        -88.4431       -0.0103627         148.816
0.536                  -0.376811        -139.679         -59.7614        -90.5031         -59.7623         -90.503       -0.0104576         148.748
0.537                  -0.393997        -140.273         -59.5127        -92.5965         -59.5161        -92.5973       -0.0105542         148.679
0.538                  -0.412576        -140.873          -59.259        -94.7283         -59.2648        -94.7292       -0.0106524         148.611
0.539                  -0.432672        -141.477         -59.0005        -96.9019         -59.0085        -96.9024       -0.0107523         148.542
0.54                   -0.454419        -142.086         -58.7375         -99.121         -58.7475        -99.1204       -0.0108541         148.473
0.541                  -0.477959        -142.699         -58.4702        -101.389         -58.4821        -101.387       -0.0109578         148.405
0.542                  -0.503441        -143.315         -58.1992        -103.711         -58.2126        -103.707       -0.0110636         148.336
0.543                  -0.531019        -143.934         -57.9247         -106.09         -57.9395        -106.083       -0.0111716         148.266
0.544                  -0.560849        -144.554         -57.6473         -108.53         -57.6632         -108.52       -0.0112818         148.197
0.545                  -0.593084        -145.173         -57.3674        -111.036         -57.3843        -111.022       -0.0113944         148.128
0.546                   -0.62787        -145.792         -57.0858        -113.611         -57.1034        -113.593       -0.0115095         148.059
0.547                  -0.665338        -146.407         -56.8032         -116.26         -56.8213        -116.238        -0.011627         147.989
0.548                  -0.705593        -147.016         -56.5205        -118.985         -56.5388        -118.959       -0.0117471          147.92
0.549                  -0.748701        -147.617         -56.2384        -121.791         -56.2568        -121.761       -0.0118698          147.85
0.55                   -0.794677        -148.206         -55.9583        -124.681         -55.9764        -124.646       -0.0119949          147.78
0.551                  -0.843462        -148.781          -55.681        -127.656         -55.6988        -127.618       -0.0121225          147.71
0.552                  -0.894912        -149.338         -55.4081         -130.72         -55.4252        -130.677       -0.0122524          147.64
0.553                  -0.948768        -149.873         -55.1407        -133.871          -55.157        -133.826       -0.0123846          147.57
0.554                   -1.00464        -150.383         -54.8805        -137.111         -54.8958        -137.063       -0.0125187           147.5
0.555                   -1.06201        -150.864         -54.6289        -140.437          -54.643        -140.387       -0.0126546         147.429
0.556                   -1.12018        -151.312         -54.3874        -143.846         -54.4002        -143.796        -0.012792         147.359
0.557                   -1.17831        -151.725         -54.1576        -147.334         -54.1691        -147.284       -0.0129306         147.288
0.558                   -1.23545        -152.102         -53.9411        -150.895         -53.9512        -150.846       -0.0130701         147.218
0.559                   -1.29051        -152.443         -53.7393        -154.521         -53.7479        -154.474       -0.0132104         147.147
0.56                    -1.34239         -152.75         -53.5534        -158.201         -53.5606        -158.158       -0.0133511         147.076
0.561                   -1.38999        -153.024         -53.3846        -161.926         -53.3903        -161.887        -0.013492         147.005
0.562                   -1.43231        -153.273         -53.2336        -165.683          -53.238        -165.649       -0.0136329         146.934
0.563                   -1.46852        -153.501          -53.101        -169.458         -53.1043        -169.431       -0.0137738         146.862
0.564                   -1.49802        -153.717         -52.9872        -173.238         -52.9894        -173.217       -0.0139145         146.791
0.565                    -1.5205        -153.929         -52.8919         -177.01         -52.8932        -176.996        -0.014055         146.719
0.566                   -1.53594        -154.145         -52.8148         179.241         -52.8153         179.248       -0.0141954         146.648
0.567                    -1.5446        -154.375         -52.7552         175.527         -52.7552         175.527       -0.0143357         146.576
0.568                     -1.547        -154.624         -52.7121          171.86         -52.7117         171.854       -0.0144759         146.504
0.569                   -1.54382        -154.901         -52.6843         168.251         -52.6836         168.239       -0.0146162         146.432
0.57                     -1.5359        -155.208         -52.6705         164.709         -52.6696         164.691       -0.0147567          146.36
0.571                   -1.52414         -155.55          -52.669          161.24         -52.6681         161.217       -0.0148976         146.288
0.572                   -1.50942         -155.93         -52.6784          157.85         -52.6776         157.824        -0.015039         146.215
0.573                   -1.49262        -156.346          -52.697         154.545         -52.6964         154.515       -0.0151809         146.142
0.574                   -1.47454        -156.801         -52.7233         151.325         -52.7228         151.293       -0.0153237          146.07
0.575                   -1.45587        -157.292         -52.7556         148.192         -52.7554         148.158       -0.0154674         145.997
0.576                   -1.43725        -157.818         -52.7926         145.145         -52.7926         145.111       -0.0156121         145.924
0.577                   -1.41918        -158.378         -52.8328         142.185         -52.8331         142.151       -0.0157581          145.85
0.578                   -1.40209         -158.97         -52.8751         139.308         -52.8756         139.275       -0.0159053         145.777
0.579                   -1.38633        -159.592         -52.9182         136.512         -52.9189          136.48       -0.0160539         145.703
0.58                    -1.37218        -160.241         -52.9611         133.793         -52.9619         133.763        -0.016204          145.63
0.581                   -1.35984        -160.916         -53.0029         131.148         -53.0039         131.121       -0.0163558         145.556
0.582                   -1.34949        -161.615         -53.0428         128.574         -53.0438         128.549       -0.0165092         145.482
0.583                   -1.34125        -162.337           -53.08         126.065         -53.0811         126.043       -0.0166644         145.408
0.584                   -1.33522         -163.08         -53.1141         123.618         -53.1151         123.599       -0.0168215         145.333
0.585                   -1.33147        -163.842         -53.1443         121.228         -53.1453         121.213       -0.0169805         145.259
0.586                   -1.33006        -164.623         -53.1703         118.892         -53.1713          118.88       -0.0171415         145.184
0.587                   -1.33105        -165.422         -53.1918         116.604         -53.1926         116.596       -0.0173046         145.109
0.588                   -1.33446        -166.237         -53.2083         114.362         -53.2089         114.356       -0.0174698         145.034
0.589                   -1.34035        -167.068         -53.2197          112.16         -53.2201         112.158       -0.0176372         144.959
0.59                    -1.34874        -167.915         -53.2256         109.996         -53.2259         109.997       -0.0178069         144.883
0.591                   -1.35969        -168.776         -53.2261         107.865         -53.2261         107.869       -0.0179789         144.808
0.592                   -1.37323        -169.652         -53.2209         105.765         -53.2207          105.77       -0.0181532         144.732
0.593                   -1.38943        -170.542           -53.21          103.69         -53.2095         103.698         -0.01833         144.656
0.594                   -1.40833        -171.445         -53.1933         101.639         -53.1925         101.649       -0.0185092          144.58
0.595                   -1.43002        -172.361         -53.1708         99.6081         -53.1698         99.6202       -0.0186909         144.504
0.596                   -1.45457        -173.291         -53.1425         97.5941         -53.1412         97.6077       -0.0188753         144.427
0.597                   -1.48207        -174.233         -53.1084         95.5942         -53.1069         95.6092       -0.0190622         144.351
0.598                   -1.51261        -175.188         -53.0686         93.6058         -53.0668         93.6218       -0.0192519         144.274
0.599                   -1.54632        -176.155         -53.0231         91.6261         -53.0211         91.6429       -0.0194443         144.197
0.6                     -1.58331        -177.133          -52.972         89.6526         -52.9698         89.6699       -0.0196395         144.119
0.601                   -1.62371        -178.124         -52.9154         87.6829          -52.913         87.7004       -0.0198375         144.042
0.602                   -1.66769        -179.126         -52.8534         85.7146         -52.8508         85.7322       -0.0200384         143.964
0.603                   -1.71538         179.862         -52.7861         83.7455         -52.7834         83.7629       -0.0202424         143.886
0.604                   -1.76698         178.839         -52.7138         81.7734          -52.711         81.7904       -0.0204493         143.808
0.605                   -1.82267         177.806         -52.6364         79.7963         -52.6336         79.8127       -0.0206593          143.73
0.606                   -1.88264         176.765         -52.5543         77.8122         -52.5514         77.8279       -0.0208725         143.652
0.607                   -1.94712         175.715         -52.4675         75.8192         -52.4646         75.8341       -0.0210889         143.573
0.608                   -2.01632         174.657         -52.3763         73.8156         -52.3734         73.8295       -0.0213085         143.494
0.609                   -2.09048         173.593         -52.2808         71.7996          -52.278         71.8124       -0.0215315         143.415
0.61                    -2.16984         172.525         -52.1814         69.7697         -52.1786         69.7813       -0.0217578         143.336
0.611                   -2.25467         171.452         -52.0781         67.7242         -52.0755         67.7347       -0.0219876         143.256
0.612                   -2.34522         170.378         -51.9713         65.6618         -51.9688         65.6711        -0.022221         143.176
0.613                   -2.44175         169.304         -51.8611         63.5812         -51.8589         63.5892       -0.0224579         143.096
0.614                   -2.54455         168.233         -51.7479         61.4811         -51.7459         61.4879       -0.0226985         143.016
0.615                   -2.65386         167.166         -51.6319         59.3604         -51.6302         59.3661       -0.0229428         142.936
0.616                   -2.76994         166.107         -51.5135         57.2181          -51.512         57.2227        -0.023191         142.855
0.617                   -2.89303         165.059         -51.3928         55.0533         -51.3916          55.057        -0.023443         142.774
0.618                   -3.02335         164.026         -51.2702         52.8653         -51.2693         52.8681       -0.0236989         142.693
0.619                   -3.16108         163.013          -51.146         50.6536         -51.1454         50.6556       -0.0239588         142.612
0.62                    -3.30637         162.022         -51.0205         48.4175         -51.0203         48.4189       -0.0242229          142.53
0.621                    -3.4593         161.061         -50.8941         46.1569         -50.8942         46.1578        -0.024491         142.448
0.622                   -3.61989         160.133          -50.767         43.8716         -50.7674         43.8722       -0.0247634         142.366
0.623                   -3.78808         159.246         -50.6396         41.5616         -50.6404          41.562       -0.0250401         142.284
0.624                    -3.9637         158.405         -50.5123         39.2271         -50.5133         39.2275       -0.0253211         142.201
0.625                   -4.14646         157.617         -50.3853         36.8685         -50.3866          36.869       -0.0256066         142.118
0.626                   -4.33591          156.89         -50.2589         34.4863         -50.2606         34.4871       -0.0258966         142.035
0.627                   -4.53146         156.231         -50.1336         32.0813         -50.1355         32.0826       -0.0261911         141.951
0.628                    -4.7323         155.647         -50.0095         29.6545         -50.0117         29.6563       -0.0264902         141.868
0.629                   -4.93744         155.146         -49.8869         27.2068         -49.8894         27.2094       -0.0267941         141.784
0.63                    -5.14565         154.735         -49.7663         24.7397         -49.7689          24.743       -0.0271026         141.699
0.631                   -5.35544          154.42         -49.6477         22.2545         -49.6505         22.2587        -0.027416         141.615
0.632                   -5.56512         154.206         -49.5315         19.7529         -49.5344         19.7579       -0.0277343          141.53
0.633                   -5.77271         154.096         -49.4178         17.2365         -49.4208         17.2425       -0.0280574         141.445
0.634                   -5.97607         154.095         -49.3068         14.7072         -49.3099         14.7142       -0.0283855          141.36
0.635                   -6.17286           154.2         -49.1986         12.1669         -49.2018         12.1749       -0.0287187         141.274
0.636                   -6.36062         154.409         -49.0935         9.61776         -49.0967         9.62669       -0.0290569         141.188
0.637                   -6.53689         154.717         -48.9914         7.06179         -48.9946          7.0716       -0.0294003         141.102
0.638                   -6.69924         155.114         -48.8925         4.50111         -48.8956         4.51174       -0.0297489         141.015
0.639                   -6.84547         155.589         -48.7967         1.93786         -48.7998         1.94922       -0.0301027         140.928
0.64                    -6.97363         156.126          -48.704       -0.625857          -48.707       -0.613882       -0.0304618         140.841
0.641                    -7.0822         156.709         -48.6145        -3.18798         -48.6173         -3.1755       -0.0308262         140.754
0.642                   -7.17016         157.317         -48.5279         -5.7465         -48.5306        -5.73366        -0.031196         140.666
0.643                   -7.23701         157.931         -48.4442        -8.29953         -48.4467        -8.28646       -0.0315713         140.578
0.644                   -7.28287         158.529         -48.3633        -10.8453         -48.3656        -10.8321       -0.0319522         140.489
0.645                    -7.3084         159.093         -48.2849         -13.382         -48.2871        -13.3689       -0.0323387           140.4
0.646                   -7.31474         159.603          -48.209        -15.9083          -48.211        -15.8954       -0.0327308         140.311
0.647                   -7.30348         160.044         -48.1352        -18.4228          -48.137        -18.4102       -0.0331288         140.222
0.648                   -7.27652         160.402         -48.0635        -20.9242         -48.0651         -20.912       -0.0335326         140.132
0.649                   -7.23596         160.666         -47.9934        -23.4116         -47.9949        -23.3999       -0.0339423         140.042
0.65                    -7.18401         160.829         -47.9249         -25.884         -47.9262         -25.873       -0.0343582         139.951
0.651                   -7.12287         160.885         -47.8576        -28.3409         -47.8587        -28.3307       -0.0347803          139.86
0.652                   -7.05472         160.831         -47.7913        -30.7818         -47.7922        -30.7724       -0.0352087         139.769
0.653                   -6.98157         160.667         -47.7257        -33.2064         -47.7265        -33.1978       -0.0356435         139.677
0.654                   -6.90531         160.393         -47.6606        -35.6145         -47.6612        -35.6068        -0.036085         139.585
0.655                   -6.82762         160.012         -47.5956        -38.0062         -47.5961        -37.9994       -0.0365333         139.492
0.656                   -6.75002         159.526         -47.5306        -40.3817          -47.531        -40.3759       -0.0369885           139.4
0.657                   -6.67384          158.94         -47.4653        -42.7414         -47.4656        -42.7364       -0.0374509         139.306
0.658                   -6.60021         158.257         -47.3995        -45.0857         -47.3997        -45.0817       -0.0379206         139.213
0.659                   -6.53014         157.482         -47.3329        -47.4153         -47.3331        -47.4121       -0.0383978         139.119
0.66                    -6.46447         156.619         -47.2654        -49.7309         -47.2655        -49.7285       -0.0388828         139.024
0.661                   -6.40392         155.673         -47.1966        -52.0334         -47.1967        -52.0318       -0.0393757         138.929
0.662                   -6.34912         154.648         -47.1266        -54.3238         -47.1267        -54.3229       -0.0398768         138.834
0.663                   -6.30059         153.547          -47.055        -56.6031         -47.0551        -56.6028       -0.0403863         138.738
0.664                    -6.2588         152.374         -46.9818        -58.8725         -46.9818        -58.8728       -0.0409045         138.642
0.665                   -6.22414         151.133         -46.9068        -61.1332         -46.9068        -61.1339       -0.0414315         138.545
0.666                   -6.19698         149.825         -46.8299        -63.3865         -46.8299        -63.3876       -0.0419677         138.448
0.667                   -6.17765         148.455         -46.7509        -65.6337         -46.7509        -65.6351       -0.0425134          138.35
0.668                   -6.16646         147.025         -46.6699        -67.8762         -46.6699        -67.8778       -0.0430687         138.252
0.669                   -6.16371         145.535         -46.5866        -70.1155         -46.5867        -70.1172        -0.043634         138.153
0.67                    -6.16969         143.988         -46.5012         -72.353         -46.5013        -72.3548       -0.0442096         138.054
0.671                   -6.18472         142.386         -46.4136        -74.5901         -46.4136        -74.5919       -0.0447956         137.954
0.672                   -6.20911         140.729         -46.3237        -76.8285         -46.3237        -76.8302       -0.0453926         137.854
0.673                    -6.2432         139.019         -46.2315        -79.0695         -46.2316        -79.0711       -0.0460006         137.754
0.674                   -6.28736         137.256         -46.1372        -81.3148         -46.1373        -81.3162       -0.0466201         137.652
0.675                   -6.34198         135.441         -46.0407        -83.5658         -46.0408         -83.567       -0.0472514         137.551
0.676                    -6.4075         133.573         -45.9421        -85.8239         -45.9422        -85.8249       -0.0478947         137.448
0.677                   -6.48439         131.654         -45.8416        -88.0907         -45.8416        -88.0914       -0.0485505         137.346
0.678                   -6.57318         129.684         -45.7391        -90.3676         -45.7392         -90.368        -0.049219         137.242
0.679                   -6.67444         127.661         -45.6349        -92.6559         -45.6349         -92.656       -0.0499007         137.138
0.68                    -6.78883         125.586         -45.5291        -94.9569         -45.5291        -94.9567       -0.0505958         137.034
0.681                   -6.91703         123.459         -45.4219        -97.2718         -45.4219        -97.2714       -0.0513047         136.929
0.682                   -7.05984         121.279         -45.3134        -99.6019         -45.3134        -99.6012       -0.0520279         136.823
0.683                   -7.21812         119.045         -45.2039        -101.948         -45.2038        -101.947       -0.0527656         136.717
0.684                   -7.39282         116.757         -45.0936        -104.311         -45.0935         -104.31       -0.0535183          136.61
0.685                   -7.58501         114.414         -44.9827        -106.693         -44.9826        -106.691       -0.0542864         136.502
0.686                   -7.79585         112.015         -44.8716        -109.093         -44.8714        -109.091       -0.0550703         136.394
0.687                   -8.02667         109.558         -44.7604        -111.512         -44.7602         -111.51       -0.0558704         136.285
0.688                    -8.2789         107.043         -44.6495         -113.95         -44.6493        -113.949       -0.0566873         136.176
0.689                   -8.55418         104.468         -44.5391        -116.408         -44.5389        -116.407       -0.0575212         136.065
0.69                    -8.85433         101.831         -44.4297        -118.886         -44.4295        -118.884       -0.0583728         135.954
0.691                   -9.18141         99.1299         -44.3214        -121.383         -44.3212        -121.382       -0.0592424         135.843
0.692                   -9.53774         96.3617         -44.2146        -123.899         -44.2144        -123.898       -0.0601306         135.731
0.693                   -9.92599         93.5232         -44.1097        -126.433         -44.1095        -126.432       -0.0610379         135.618
0.694                   -10.3492         90.6098         -44.0069        -128.985         -44.0067        -128.984       -0.0619648         135.504
0.695                   -10.8109         87.6158         -43.9066        -131.553         -43.9064        -131.552       -0.0629118         135.389
0.696                   -11.3153         84.5338         -43.8089        -134.136         -43.8088        -134.135       -0.0638796         135.274
0.697                   -11.8672         81.3537         -43.7143        -136.732         -43.7142        -136.731       -0.0648686         135.158
0.698                   -12.4726          78.062         -43.6229        -139.339         -43.6229        -139.339       -0.0658795         135.041