! TOUCHSTONE file generated by CST MICROWAVE STUDIO
! Date and time: Mon Nov 30 09:05:33 2020
! Project name: Scenario_1_Planar_Body_Tissue_Out_of_Line_v2.cst
! Parameters = {dy1=-346; L_HA=400; Ltissue=700; MT=2.54; Rad_Dielectric=30; Rad_Lower=7.3; Rad_Upper=30; Wtissue=700; a_HA=580; a_WG=246; b_HA=500; b_WG=121; c_HA=0; c_WG=187; d_feed=85; dx1=346; h_feed=15; h_lower=18; h_upper=40; hfat=3; hgap=25; hmuscle=50; hskin=1.5}
! Header version: 2018
! Port assignment regex: !\s*Touchstone port\s*([0-9]+)\s*=\s*(CST MWS port|CST DS port)\s*([0-9]+|Zmin|Zmax)\s*\(\"(.*)\"\)(\s*mode\s*([0-9]+))?.*
! Touchstone port assignment:
! Touchstone port 1 = CST MWS port 1 ("")
! Touchstone port 2 = CST MWS port 2 ("")
# GHz S DB R 50
0.5                    -0.216171        -121.722         -59.7805        -11.8131         -59.7803        -11.8135      -0.00796687         151.151
0.501                  -0.220094        -122.121         -59.7233        -13.2226         -59.7232        -13.2229      -0.00801698         151.086
0.502                  -0.224008        -122.523         -59.6649        -14.6524         -59.6649        -14.6527       -0.0080674         151.021
0.503                  -0.227916        -122.927         -59.6054         -16.103         -59.6056        -16.1032      -0.00811819         150.955
0.504                   -0.23182        -123.334         -59.5448        -17.5744         -59.5451        -17.5745      -0.00816939          150.89
0.505                  -0.235723        -123.744         -59.4831        -19.0669         -59.4834        -19.0669      -0.00822106         150.825
0.506                  -0.239628        -124.157         -59.4202        -20.5809         -59.4206        -20.5808      -0.00827324         150.759
0.507                  -0.243539        -124.572         -59.3562        -22.1164         -59.3566        -22.1162        -0.008326         150.693
0.508                  -0.247457         -124.99          -59.291        -23.6738         -59.2916        -23.6735      -0.00837939         150.628
0.509                  -0.251387        -125.411         -59.2246        -25.2533         -59.2253        -25.2529      -0.00843346         150.562
0.51                   -0.255332        -125.834         -59.1572        -26.8551          -59.158        -26.8545      -0.00848827         150.496
0.511                  -0.259295        -126.261         -59.0886        -28.4793         -59.0895        -28.4786      -0.00854387          150.43
0.512                   -0.26328        -126.691          -59.019        -30.1262         -59.0199        -30.1253      -0.00860032         150.364
0.513                   -0.26729        -127.123         -58.9482        -31.7959         -58.9492        -31.7948      -0.00865767         150.298
0.514                   -0.27133        -127.559         -58.8764        -33.4886         -58.8775        -33.4874      -0.00871598         150.232
0.515                  -0.275404        -127.998         -58.8036        -35.2045         -58.8048         -35.203       -0.0087753         150.165
0.516                  -0.279515        -128.439         -58.7298        -36.9436         -58.7311        -36.9419      -0.00883569         150.099
0.517                  -0.283668        -128.885         -58.6551         -38.706         -58.6564        -38.7042      -0.00889719         150.032
0.518                  -0.287867        -129.333         -58.5794        -40.4919         -58.5808        -40.4899      -0.00895986         149.966
0.519                  -0.292119        -129.785          -58.503        -42.3013         -58.5044         -42.299      -0.00902375         149.899
0.52                   -0.296426         -130.24         -58.4258        -44.1342         -58.4273        -44.1317       -0.0090889         149.832
0.521                  -0.300795        -130.698         -58.3478        -45.9907         -58.3494        -45.9879      -0.00915535         149.766
0.522                  -0.305231         -131.16         -58.2693        -47.8706         -58.2709        -47.8676      -0.00922316         149.699
0.523                  -0.309739        -131.626         -58.1902         -49.774         -58.1918        -49.7706      -0.00929236         149.632
0.524                  -0.314326        -132.095         -58.1107        -51.7006         -58.1124         -51.697      -0.00936299         149.565
0.525                  -0.318998        -132.568         -58.0308        -53.6504         -58.0325        -53.6466      -0.00943508         149.497
0.526                   -0.32376        -133.044         -57.9507        -55.6232         -57.9525        -55.6191      -0.00950867          149.43
0.527                   -0.32862        -133.525         -57.8706        -57.6187         -57.8724        -57.6143      -0.00958378         149.363
0.528                  -0.333585        -134.009         -57.7905        -59.6366         -57.7923        -59.6318      -0.00966045         149.295
0.529                  -0.338662        -134.497         -57.7105        -61.6765         -57.7124        -61.6714      -0.00973869         149.227
0.53                   -0.343859        -134.989          -57.631         -63.738         -57.6328        -63.7326      -0.00981854          149.16
0.531                  -0.349184        -135.485         -57.5519        -65.8205         -57.5537        -65.8148          -0.0099         149.092
0.532                  -0.354645        -135.985         -57.4735        -67.9234         -57.4753        -67.9174       -0.0099831         149.024
0.533                  -0.360252         -136.49          -57.396         -70.046         -57.3978        -70.0398       -0.0100678         148.956
0.534                  -0.366013        -136.999         -57.3196        -72.1876         -57.3213        -72.1811       -0.0101542         148.888
0.535                  -0.371938        -137.512         -57.2444        -74.3471         -57.2461        -74.3403       -0.0102423          148.82
0.536                  -0.378038        -138.029         -57.1708        -76.5235         -57.1724        -76.5166       -0.0103321         148.752
0.537                  -0.384324        -138.551         -57.0988        -78.7157         -57.1004        -78.7086       -0.0104235         148.683
0.538                  -0.390806        -139.078         -57.0288        -80.9224         -57.0303         -80.915       -0.0105166         148.615
0.539                  -0.397498        -139.609          -56.961        -83.1419         -56.9624        -83.1345       -0.0106113         148.546
0.54                    -0.40441        -140.146         -56.8956        -85.3728         -56.8969        -85.3652       -0.0107077         148.477
0.541                  -0.411557        -140.687         -56.8329        -87.6131         -56.8341        -87.6055       -0.0108058         148.409
0.542                  -0.418952        -141.233          -56.773        -89.8607         -56.7742        -89.8532       -0.0109056          148.34
0.543                   -0.42661        -141.784         -56.7164        -92.1135         -56.7174        -92.1061        -0.011007         148.271
0.544                  -0.434546         -142.34         -56.6631        -94.3689          -56.664        -94.3617       -0.0111101         148.202
0.545                  -0.442777        -142.901         -56.6134        -96.6243         -56.6142        -96.6173       -0.0112148         148.132
0.546                   -0.45132        -143.468         -56.5676        -98.8765         -56.5683        -98.8699       -0.0113211         148.063
0.547                  -0.460192         -144.04         -56.5257        -101.122         -56.5263        -101.116        -0.011429         147.994
0.548                  -0.469412        -144.618          -56.488        -103.359         -56.4885        -103.353       -0.0115385         147.924
0.549                  -0.479002        -145.201         -56.4547        -105.581          -56.455        -105.576       -0.0116496         147.854
0.55                   -0.488981         -145.79         -56.4258        -107.785          -56.426        -107.781       -0.0117623         147.785
0.551                  -0.499372        -146.385         -56.4013        -109.968         -56.4014        -109.964       -0.0118766         147.715
0.552                  -0.510198        -146.986         -56.3812        -112.123         -56.3812        -112.121       -0.0119924         147.645
0.553                  -0.521486        -147.592         -56.3655        -114.247         -56.3654        -114.246       -0.0121098         147.575
0.554                  -0.533259        -148.205          -56.354        -116.334         -56.3538        -116.333       -0.0122287         147.504
0.555                  -0.545547        -148.825         -56.3464        -118.378         -56.3462        -118.379       -0.0123491         147.434
0.556                  -0.558379         -149.45         -56.3424        -120.374         -56.3421        -120.377        -0.012471         147.364
0.557                  -0.571786        -150.082         -56.3414        -122.317         -56.3412        -122.321       -0.0125944         147.293
0.558                    -0.5858        -150.721         -56.3429        -124.201         -56.3427        -124.206       -0.0127193         147.222
0.559                  -0.600455        -151.366          -56.346        -126.021         -56.3459        -126.028       -0.0128458         147.151
0.56                   -0.615789        -152.019         -56.3499        -127.772         -56.3499         -127.78       -0.0129736         147.081
0.561                  -0.631841        -152.678         -56.3535         -129.45         -56.3535        -129.459        -0.013103         147.009
0.562                   -0.64865        -153.344         -56.3553        -131.051         -56.3555         -131.06       -0.0132338         146.938
0.563                   -0.66626        -154.017         -56.3542        -132.573         -56.3545        -132.583       -0.0133661         146.867
0.564                  -0.684716        -154.697         -56.3484        -134.015          -56.349        -134.026       -0.0134999         146.796
0.565                  -0.704068        -155.385         -56.3363        -135.377         -56.3371        -135.389       -0.0136351         146.724
0.566                  -0.724365         -156.08         -56.3162        -136.664         -56.3172        -136.675       -0.0137718         146.652
0.567                  -0.745662        -156.782         -56.2864        -137.879         -56.2876         -137.89         -0.01391          146.58
0.568                  -0.768015        -157.492         -56.2452         -139.03         -56.2466        -139.041       -0.0140497         146.508
0.569                  -0.791484        -158.209          -56.191        -140.126         -56.1926        -140.136       -0.0141908         146.436
0.57                   -0.816133        -158.935         -56.1226         -141.18         -56.1244        -141.189       -0.0143334         146.364
0.571                  -0.842028        -159.667         -56.0391        -142.205         -56.0409        -142.212       -0.0144775         146.292
0.572                   -0.86924        -160.408         -55.9398        -143.215         -55.9418        -143.221       -0.0146231         146.219
0.573                  -0.897843        -161.156         -55.8247        -144.227         -55.8267        -144.232       -0.0147702         146.147
0.574                  -0.927916        -161.911         -55.6941        -145.257          -55.696         -145.26       -0.0149188         146.074
0.575                  -0.959539        -162.675         -55.5488         -146.32         -55.5507        -146.321        -0.015069         146.001
0.576                    -0.9928        -163.446         -55.3901        -147.429         -55.3917        -147.429       -0.0152207         145.928
0.577                   -1.02779        -164.224         -55.2194        -148.597         -55.2209        -148.595        -0.015374         145.855
0.578                    -1.0646         -165.01         -55.0386        -149.832           -55.04         -149.83       -0.0155289         145.781
0.579                   -1.10334        -165.803         -54.8498        -151.143          -54.851        -151.141       -0.0156853         145.708
0.58                     -1.1441        -166.603         -54.6551        -152.534          -54.656        -152.531       -0.0158434         145.634
0.581                   -1.18699         -167.41         -54.4565        -154.005         -54.4572        -154.002       -0.0160032          145.56
0.582                   -1.23214        -168.223          -54.256        -155.557         -54.2565        -155.555       -0.0161646         145.486
0.583                   -1.27964        -169.043         -54.0555        -157.188         -54.0558        -157.185       -0.0163277         145.412
0.584                   -1.32964        -169.868         -53.8566        -158.892         -53.8568         -158.89       -0.0164925         145.338
0.585                   -1.38224        -170.699         -53.6608        -160.664         -53.6609        -160.663       -0.0166591         145.263
0.586                   -1.43758        -171.534         -53.4694        -162.499         -53.4693        -162.498       -0.0168274         145.189
0.587                    -1.4958        -172.374         -53.2832        -164.388         -53.2831        -164.388       -0.0169975         145.114
0.588                   -1.55701        -173.217         -53.1031        -166.325          -53.103        -166.326       -0.0171695         145.039
0.589                   -1.62137        -174.063         -52.9297        -168.302         -52.9295        -168.303       -0.0173433         144.964
0.59                      -1.689         -174.91         -52.7633        -170.311         -52.7631        -170.314       -0.0175191         144.888
0.591                   -1.76005        -175.758         -52.6041        -172.347         -52.6039         -172.35       -0.0176967         144.813
0.592                   -1.83464        -176.607         -52.4523        -174.402         -52.4521        -174.406       -0.0178764         144.737
0.593                    -1.9129        -177.453         -52.3078        -176.471         -52.3076        -176.475        -0.018058         144.662
0.594                   -1.99498        -178.297         -52.1704        -178.547         -52.1703        -178.552       -0.0182417         144.586
0.595                   -2.08097        -179.136           -52.04         179.373         -52.0399         179.368       -0.0184275         144.509
0.596                     -2.171        -179.969         -51.9163         177.295         -51.9162          177.29       -0.0186154         144.433
0.597                   -2.26515         179.207         -51.7989         175.222         -51.7989         175.217       -0.0188055         144.356
0.598                   -2.36351         178.392         -51.6876         173.158         -51.6877         173.153       -0.0189978          144.28
0.599                   -2.46615         177.589          -51.582         171.106         -51.5822         171.101       -0.0191923         144.203
0.6                      -2.5731           176.8         -51.4817         169.067         -51.4819         169.062       -0.0193891         144.126
0.601                   -2.68438         176.029         -51.3864         167.044         -51.3866          167.04       -0.0195883         144.048
0.602                   -2.79997         175.277         -51.2956          165.04         -51.2958         165.035       -0.0197899         143.971
0.603                   -2.91981         174.548          -51.209         163.054         -51.2093         163.049        -0.019994         143.893
0.604                   -3.04381         173.844         -51.1262         161.088         -51.1265         161.084       -0.0202005         143.815
0.605                   -3.17182         173.168          -51.047         159.143         -51.0473         159.139       -0.0204096         143.737
0.606                   -3.30365         172.524         -50.9709          157.22         -50.9712         157.216       -0.0206214         143.659
0.607                   -3.43904         171.914         -50.8977         155.318          -50.898         155.315       -0.0208358          143.58
0.608                   -3.57769         171.342          -50.827         153.439         -50.8273         153.435       -0.0210529         143.502
0.609                   -3.71921         170.811         -50.7586         151.581         -50.7589         151.578       -0.0212728         143.423
0.61                    -3.86314         170.324         -50.6922         149.746         -50.6925         149.743       -0.0214955         143.344
0.611                   -4.00896         169.883         -50.6276         147.932         -50.6279          147.93       -0.0217211         143.264
0.612                   -4.15606         169.492         -50.5645          146.14         -50.5648         146.138       -0.0219498         143.185
0.613                   -4.30378         169.153         -50.5027         144.369         -50.5031         144.367       -0.0221814         143.105
0.614                   -4.45137         168.867         -50.4421         142.619         -50.4424         142.617       -0.0224161         143.025
0.615                   -4.59801         168.636         -50.3824         140.889         -50.3827         140.888        -0.022654         142.944
0.616                   -4.74283         168.461         -50.3234          139.18         -50.3237         139.178       -0.0228952         142.864
0.617                   -4.88491         168.342         -50.2651         137.489         -50.2654         137.488       -0.0231397         142.783
0.618                   -5.02332         168.277         -50.2072         135.817         -50.2075         135.816       -0.0233875         142.702
0.619                   -5.15708         168.266         -50.1496         134.164         -50.1499         134.163       -0.0236388         142.621
0.62                    -5.28523         168.306         -50.0922         132.527         -50.0925         132.527       -0.0238936          142.54
0.621                   -5.40686         168.393         -50.0349         130.908         -50.0351         130.908        -0.024152         142.458
0.622                   -5.52108         168.524         -49.9775         129.306         -49.9777         129.306       -0.0244142         142.376
0.623                   -5.62709         168.694           -49.92         127.719         -49.9202         127.719       -0.0246801         142.294
0.624                    -5.7242         168.895         -49.8623         126.147         -49.8624         126.147       -0.0249498         142.211
0.625                   -5.81181         169.123         -49.8042         124.589         -49.8043          124.59       -0.0252235         142.129
0.626                   -5.88949          169.37         -49.7457         123.046         -49.7458         123.046       -0.0255013         142.046
0.627                   -5.95694         169.629         -49.6868         121.516         -49.6868         121.516       -0.0257831         141.962
0.628                   -6.01401         169.892         -49.6272         119.998         -49.6273         119.999       -0.0260692         141.879
0.629                   -6.06073         170.152         -49.5671         118.493         -49.5671         118.494       -0.0263596         141.795
0.63                    -6.09725         170.401         -49.5063         116.999         -49.5063             117       -0.0266544         141.711
0.631                   -6.12389         170.632         -49.4448         115.516         -49.4448         115.517       -0.0269537         141.627
0.632                   -6.14107          170.84         -49.3825         114.044         -49.3824         114.044       -0.0272575         141.542
0.633                   -6.14934         171.017         -49.3193         112.581         -49.3193         112.582       -0.0275661         141.457
0.634                   -6.14932         171.159         -49.2553         111.127         -49.2553         111.128       -0.0278796         141.372
0.635                   -6.14171         171.261         -49.1904         109.683         -49.1904         109.684       -0.0281979         141.286
0.636                   -6.12724          171.32         -49.1246         108.246         -49.1245         108.247       -0.0285213         141.201
0.637                   -6.10669         171.333         -49.0578         106.817         -49.0576         106.818       -0.0288498         141.114
0.638                   -6.08081         171.296         -48.9899         105.395         -48.9898         105.396       -0.0291836         141.028
0.639                   -6.05038          171.21          -48.921          103.98         -48.9209         103.981       -0.0295228         140.941
0.64                    -6.01613         171.071          -48.851         102.571         -48.8509         102.572       -0.0298675         140.854
0.641                   -5.97877         170.881           -48.78         101.168         -48.7798         101.169       -0.0302178         140.767
0.642                   -5.93898         170.639         -48.7078         99.7699         -48.7076          99.771       -0.0305739         140.679
0.643                   -5.89737         170.345         -48.6345         98.3764         -48.6343         98.3775       -0.0309358         140.591
0.644                   -5.85454         169.999           -48.56         96.9872         -48.5598         96.9882       -0.0313039         140.503
0.645                     -5.811         169.604         -48.4843         95.6017         -48.4841         95.6027        -0.031678         140.414
0.646                   -5.76726         169.159         -48.4074         94.2195         -48.4072         94.2205       -0.0320585         140.325
0.647                   -5.72373         168.667         -48.3293         92.8402         -48.3291         92.8412       -0.0324454         140.236
0.648                   -5.68081         168.128           -48.25         91.4632         -48.2498         91.4642       -0.0328389         140.146
0.649                   -5.63886         167.544         -48.1695         90.0883         -48.1692         90.0892       -0.0332392         140.056
0.65                    -5.59818         166.916         -48.0876         88.7148         -48.0874         88.7157       -0.0336464         139.966
0.651                   -5.55904         166.246         -48.0046         87.3424         -48.0043         87.3433       -0.0340607         139.875
0.652                    -5.5217         165.534         -47.9202         85.9707         -47.9199         85.9715       -0.0344821         139.784
0.653                   -5.48637         164.783         -47.8346         84.5992         -47.8343         84.5999        -0.034911         139.692
0.654                   -5.45323         163.994         -47.7477         83.2275         -47.7474         83.2282       -0.0353475           139.6
0.655                   -5.42245         163.168         -47.6594         81.8552         -47.6592         81.8558       -0.0357916         139.508
0.656                   -5.39418         162.305         -47.5699         80.4818         -47.5696         80.4824       -0.0362437         139.415
0.657                   -5.36854         161.408         -47.4791          79.107         -47.4788         79.1076        -0.036704         139.322
0.658                   -5.34567         160.476          -47.387         77.7303         -47.3867         77.7308       -0.0371725         139.229
0.659                   -5.32565         159.511         -47.2936         76.3513         -47.2933         76.3518       -0.0376495         139.135
0.66                    -5.30859         158.515         -47.1989         74.9697         -47.1986         74.9701       -0.0381351          139.04
0.661                   -5.29457         157.486         -47.1029         73.5849         -47.1026         73.5853       -0.0386297         138.946
0.662                   -5.28368         156.427         -47.0056         72.1966         -47.0053         72.1969       -0.0391334          138.85
0.663                   -5.27599         155.337          -46.907         70.8044         -46.9068         70.8047       -0.0396464         138.755
0.664                   -5.27158         154.217         -46.8072         69.4078         -46.8069          69.408       -0.0401689         138.659
0.665                   -5.27051         153.067         -46.7061         68.0065         -46.7058         68.0067       -0.0407011         138.562
0.666                   -5.27287         151.889         -46.6037            66.6         -46.6034         66.6002       -0.0412434         138.465
0.667                   -5.27872         150.681         -46.5001          65.188         -46.4998         65.1881       -0.0417958         138.368
0.668                   -5.28814         149.444         -46.3952           63.77          -46.395         63.7701       -0.0423587          138.27
0.669                   -5.30121         148.179         -46.2892         62.3457         -46.2889         62.3457       -0.0429324         138.172
0.67                    -5.31801         146.885         -46.1819         60.9145         -46.1817         60.9145       -0.0435169         138.073
0.671                   -5.33862         145.563         -46.0735         59.4762         -46.0733         59.4762       -0.0441127         137.973
0.672                   -5.36314         144.211          -45.964         58.0304         -45.9637         58.0303         -0.04472         137.874
0.673                   -5.39165         142.831         -45.8533         56.5765          -45.853         56.5764        -0.045339         137.773
0.674                   -5.42428         141.421         -45.7415         55.1143         -45.7413         55.1141       -0.0459701         137.672
0.675                   -5.46111         139.982         -45.6287         53.6433         -45.6285         53.6431       -0.0466135         137.571
0.676                   -5.50227         138.514         -45.5148         52.1632         -45.5146         52.1629       -0.0472695         137.469
0.677                   -5.54789         137.015            -45.4         50.6735         -45.3998         50.6732       -0.0479384         137.367
0.678                    -5.5981         135.485         -45.2842         49.1739          -45.284         49.1736       -0.0486205         137.264
0.679                   -5.65304         133.925         -45.1675          47.664         -45.1673         47.6637       -0.0493162          137.16
0.68                    -5.71286         132.333           -45.05         46.1434         -45.0498         46.1431       -0.0500257         137.056
0.681                   -5.77773         130.709         -44.9316         44.6118         -44.9314         44.6115       -0.0507494         136.951
0.682                   -5.84782         129.052         -44.8125         43.0689         -44.8123         43.0685       -0.0514876         136.846
0.683                   -5.92332         127.361         -44.6927         41.5142         -44.6925         41.5138       -0.0522407          136.74
0.684                   -6.00442         125.637         -44.5722         39.9475         -44.5721          39.947       -0.0530091         136.634
0.685                   -6.09134         123.877         -44.4512         38.3684         -44.4511         38.3679        -0.053793         136.527
0.686                   -6.18429         122.081         -44.3297         36.7766         -44.3296         36.7762       -0.0545929         136.419
0.687                   -6.28353         120.248         -44.2077         35.1719         -44.2076         35.1715       -0.0554092         136.311
0.688                   -6.38929         118.377         -44.0854         33.5541         -44.0853         33.5536       -0.0562422         136.202
0.689                   -6.50184         116.466         -43.9629         31.9227         -43.9627         31.9222       -0.0570923         136.092
0.69                    -6.62147         114.516         -43.8401         30.2777           -43.84         30.2772         -0.05796         135.982
0.691                   -6.74847         112.524         -43.7172         28.6188         -43.7171         28.6183       -0.0588457         135.871
0.692                   -6.88316         110.488         -43.5943         26.9459         -43.5942         26.9454       -0.0597498         135.759
0.693                   -7.02586         108.408         -43.4715         25.2588         -43.4714         25.2583       -0.0606728         135.647
0.694                   -7.17693         106.281         -43.3488         23.5575         -43.3488          23.557        -0.061615         135.534
0.695                   -7.33673         104.106         -43.2265         21.8418         -43.2264         21.8413       -0.0625771          135.42
0.696                   -7.50564         101.881         -43.1045         20.1117         -43.1044         20.1113       -0.0635594         135.306