! TOUCHSTONE file generated by CST MICROWAVE STUDIO
! Date and time: Tue Nov 17 07:09:32 2020
! Project name: Scenario_1_Planar_Body_Tissue_Out_of_Line.cst
! Parameters = {L_HA=400; Ltissue=700; MT=2.54; Rad_Dielectric=30; Rad_Lower=7.3; Rad_Upper=30; Wtissue=700; a_HA=580; a_WG=246; b_HA=500; b_WG=121; c_HA=0; c_WG=187; d_feed=85; dx1=1039; h_feed=15; h_lower=18; h_upper=40; hfat=3; hgap=25; hmuscle=50; hskin=1.5}
! Header version: 2018
! Port assignment regex: !\s*Touchstone port\s*([0-9]+)\s*=\s*(CST MWS port|CST DS port)\s*([0-9]+|Zmin|Zmax)\s*\(\"(.*)\"\)(\s*mode\s*([0-9]+))?.*
! Touchstone port assignment:
! Touchstone port 1 = CST MWS port 1 ("")
! Touchstone port 2 = CST MWS port 2 ("")
# GHz S DB R 50
0.5                    -0.163696        -121.565         -63.2522        -16.6574         -63.2518        -16.6571      -0.00763151         151.149
0.501                  -0.169269        -121.976         -63.1923        -18.0039         -63.1919        -18.0037      -0.00768806         151.083
0.502                  -0.174734         -122.39           -63.13        -19.3718         -63.1296        -19.3716      -0.00774533         151.018
0.503                  -0.180093        -122.806         -63.0653        -20.7614         -63.0649        -20.7611      -0.00780333         150.953
0.504                  -0.185348        -123.225          -62.998         -22.173         -62.9977        -22.1728      -0.00786209         150.887
0.505                  -0.190499        -123.648         -62.9282         -23.607         -62.9278        -23.6068      -0.00792164         150.822
0.506                   -0.19555        -124.074         -62.8556        -25.0639         -62.8553        -25.0637      -0.00798201         150.756
0.507                  -0.200503        -124.503         -62.7802        -26.5439         -62.7799        -26.5437      -0.00804322         150.691
0.508                   -0.20536        -124.935         -62.7019        -28.0475         -62.7016        -28.0473      -0.00810532         150.625
0.509                  -0.210125        -125.371         -62.6207         -29.575         -62.6203        -29.5749      -0.00816831         150.559
0.51                     -0.2148        -125.811         -62.5363        -31.1269          -62.536        -31.1267      -0.00823224         150.493
0.511                   -0.21939        -126.254         -62.4487        -32.7034         -62.4484        -32.7033      -0.00829714         150.427
0.512                    -0.2239        -126.701         -62.3577         -34.305         -62.3575        -34.3049      -0.00836303         150.361
0.513                  -0.228335        -127.153         -62.2634        -35.9322         -62.2631         -35.932      -0.00842994         150.295
0.514                    -0.2327        -127.609         -62.1656        -37.5851         -62.1653         -37.585       -0.0084979         150.229
0.515                  -0.237003        -128.069         -62.0641        -39.2644         -62.0638        -39.2643      -0.00856695         150.163
0.516                  -0.241251        -128.534         -61.9589        -40.9704         -61.9586        -40.9703      -0.00863711         150.096
0.517                  -0.245454        -129.004         -61.8499        -42.7034         -61.8496        -42.7034      -0.00870841          150.03
0.518                  -0.249622         -129.48         -61.7369         -44.464         -61.7367         -44.464      -0.00878088         149.963
0.519                  -0.253768         -129.96           -61.62        -46.2526         -61.6197        -46.2525      -0.00885456         149.897
0.52                   -0.257905        -130.446         -61.4989        -48.0696         -61.4987        -48.0695      -0.00892946          149.83
0.521                   -0.26205        -130.938         -61.3736        -49.9155         -61.3734        -49.9154      -0.00900562         149.763
0.522                  -0.266222        -131.437          -61.244        -51.7908         -61.2438        -51.7907      -0.00908308         149.696
0.523                  -0.270443        -131.942           -61.11         -53.696         -61.1098        -53.6959      -0.00916184         149.629
0.524                  -0.274739        -132.454         -60.9715        -55.6315         -60.9714        -55.6314      -0.00924195         149.562
0.525                  -0.279142        -132.973         -60.8285        -57.5981         -60.8284         -57.598      -0.00932343         149.495
0.526                  -0.283686          -133.5         -60.6809        -59.5963         -60.6808        -59.5961      -0.00940631         149.428
0.527                  -0.288414        -134.035         -60.5287        -61.6266         -60.5285        -61.6265      -0.00949061          149.36
0.528                  -0.293376        -134.579         -60.3717        -63.6898         -60.3716        -63.6897      -0.00957636         149.293
0.529                   -0.29863        -135.133           -60.21        -65.7866         -60.2099        -65.7865      -0.00966357         149.225
0.53                   -0.304247        -135.696         -60.0435        -67.9178         -60.0434        -67.9176      -0.00975228         149.157
0.531                  -0.310309         -136.27         -59.8722         -70.084         -59.8721        -70.0838       -0.0098425          149.09
0.532                  -0.316917        -136.855         -59.6961        -72.2863          -59.696        -72.2861      -0.00993425         149.022
0.533                  -0.324189        -137.452         -59.5153        -74.5255         -59.5152        -74.5253       -0.0100276         148.954
0.534                  -0.332267        -138.062         -59.3297        -76.8027         -59.3296        -76.8024       -0.0101224         148.886
0.535                  -0.341324        -138.686         -59.1395        -79.1188         -59.1394        -79.1185       -0.0102189         148.818
0.536                  -0.351566        -139.324         -58.9446        -81.4749         -58.9445        -81.4746       -0.0103169         148.749
0.537                  -0.363243        -139.978         -58.7452        -83.8724         -58.7452         -83.872       -0.0104166         148.681
0.538                  -0.376656        -140.648         -58.5415        -86.3123         -58.5414        -86.3119       -0.0105179         148.613
0.539                  -0.392173        -141.336         -58.3335        -88.7961         -58.3335        -88.7957       -0.0106208         148.544
0.54                   -0.410235        -142.042         -58.1215        -91.3251         -58.1215        -91.3246       -0.0107254         148.475
0.541                   -0.43138        -142.767         -57.9057        -93.9008         -57.9057        -93.9002       -0.0108316         148.407
0.542                  -0.456253        -143.512         -57.6864        -96.5245         -57.6863        -96.5239       -0.0109395         148.338
0.543                  -0.485631        -144.276         -57.4638        -99.1979         -57.4637        -99.1973        -0.011049         148.269
0.544                  -0.520436        -145.058         -57.2383        -101.922         -57.2383        -101.922       -0.0111601           148.2
0.545                  -0.561751        -145.856         -57.0103          -104.7         -57.0103        -104.699       -0.0112729         148.131
0.546                  -0.610819        -146.667         -56.7803        -107.531         -56.7802         -107.53       -0.0113873         148.061
0.547                  -0.669023        -147.484         -56.5487        -110.418         -56.5487        -110.417       -0.0115033         147.992
0.548                  -0.737819        -148.298         -56.3162        -113.361         -56.3161         -113.36        -0.011621         147.922
0.549                  -0.818608        -149.095         -56.0832        -116.363         -56.0832        -116.362       -0.0117403         147.853
0.55                    -0.91251        -149.856         -55.8506        -119.423         -55.8505        -119.422       -0.0118611         147.783
0.551                   -1.02001        -150.556          -55.619        -122.543         -55.6189        -122.542       -0.0119835         147.713
0.552                   -1.14047        -151.167         -55.3892        -125.723         -55.3891        -125.722       -0.0121075         147.643
0.553                    -1.2716        -151.655          -55.162        -128.962         -55.1619        -128.961        -0.012233         147.573
0.554                   -1.40897        -151.989         -54.9384         -132.26         -54.9383        -132.259         -0.01236         147.503
0.555                   -1.54591        -152.147         -54.7193        -135.616         -54.7192        -135.615       -0.0124885         147.433
0.556                   -1.67399        -152.122         -54.5056        -139.028         -54.5055        -139.027       -0.0126184         147.363
0.557                   -1.78438        -151.933         -54.2983        -142.493         -54.2981        -142.492       -0.0127498         147.292
0.558                   -1.86959        -151.619         -54.0983        -146.009         -54.0982        -146.008       -0.0128826         147.221
0.559                   -1.92516        -151.239         -53.9066        -149.572         -53.9065        -149.571       -0.0130168         147.151
0.56                    -1.95045        -150.855         -53.7242        -153.176          -53.724        -153.175       -0.0131523          147.08
0.561                   -1.94829        -150.521         -53.5518        -156.816         -53.5517        -156.815       -0.0132891         147.009
0.562                   -1.92382        -150.278         -53.3903        -160.486         -53.3901        -160.485       -0.0134272         146.938
0.563                   -1.88306        -150.147         -53.2404        -164.179         -53.2402        -164.178       -0.0135665         146.867
0.564                   -1.83178        -150.137         -53.1025        -167.887         -53.1023        -167.886       -0.0137071         146.795
0.565                   -1.77484        -150.242         -52.9772        -171.602          -52.977        -171.601       -0.0138489         146.724
0.566                   -1.71594        -150.452         -52.8646        -175.316         -52.8644        -175.315       -0.0139918         146.652
0.567                   -1.65771        -150.755          -52.765         -179.02         -52.7647         -179.02       -0.0141358          146.58
0.568                   -1.60188        -151.138         -52.6781         177.294         -52.6778         177.294        -0.014281         146.508
0.569                   -1.54946        -151.586         -52.6038         173.635         -52.6036         173.635       -0.0144273         146.437
0.57                    -1.50102         -152.09         -52.5417          170.01         -52.5415          170.01       -0.0145746         146.364
0.571                   -1.45677        -152.641         -52.4913         166.427         -52.4911         166.427       -0.0147229         146.292
0.572                    -1.4167         -153.23         -52.4519         162.893         -52.4517         162.893       -0.0148723          146.22
0.573                   -1.38071        -153.851         -52.4228         159.413         -52.4226         159.413       -0.0150227         146.147
0.574                    -1.3486        -154.501         -52.4031         155.994         -52.4029         155.993       -0.0151741         146.075
0.575                   -1.32015        -155.174          -52.392         152.638         -52.3918         152.638       -0.0153266         146.002
0.576                   -1.29511        -155.867         -52.3885          149.35         -52.3883          149.35         -0.01548         145.929
0.577                   -1.27327        -156.579         -52.3916         146.132         -52.3915         146.131       -0.0156343         145.856
0.578                    -1.2544        -157.307         -52.4005         142.986         -52.4004         142.985       -0.0157897         145.782
0.579                   -1.23832        -158.051         -52.4142         139.913          -52.414         139.912       -0.0159462         145.709
0.58                    -1.22484        -158.808         -52.4317         136.914         -52.4316         136.913       -0.0161036         145.635
0.581                   -1.21384        -159.579         -52.4522         133.987         -52.4521         133.987       -0.0162621         145.562
0.582                   -1.20516        -160.363         -52.4749         131.134         -52.4748         131.133       -0.0164216         145.488
0.583                   -1.19871        -161.159          -52.499         128.352         -52.4989         128.351       -0.0165823         145.414
0.584                    -1.1944        -161.967         -52.5237         125.639         -52.5236         125.639       -0.0167441          145.34
0.585                   -1.19216        -162.788         -52.5483         122.995         -52.5483         122.995       -0.0169071         145.265
0.586                   -1.19195         -163.62         -52.5723         120.416         -52.5723         120.416       -0.0170713         145.191
0.587                   -1.19371        -164.465         -52.5951         117.901         -52.5951         117.901       -0.0172367         145.116
0.588                   -1.19745        -165.323          -52.616         115.447          -52.616         115.447       -0.0174035         145.041
0.589                   -1.20315        -166.192         -52.6347         113.052         -52.6347         113.051       -0.0175717         144.966
0.59                    -1.21084        -167.075         -52.6507         110.712         -52.6507         110.711       -0.0177414         144.891
0.591                   -1.22053        -167.971         -52.6635         108.424         -52.6636         108.424       -0.0179126         144.816
0.592                   -1.23226         -168.88         -52.6729         106.187          -52.673         106.187       -0.0180853          144.74
0.593                    -1.2461        -169.803         -52.6785         103.997         -52.6785         103.997       -0.0182598         144.664
0.594                   -1.26212        -170.739         -52.6799         101.851         -52.6799         101.851        -0.018436         144.589
0.595                   -1.28039        -171.691         -52.6769         99.7459          -52.677         99.7463        -0.018614         144.512
0.596                   -1.30102        -172.656         -52.6693         97.6795         -52.6693           97.68        -0.018794         144.436
0.597                   -1.32412        -173.637         -52.6568         95.6485         -52.6568         95.6491        -0.018976          144.36
0.598                   -1.34982        -174.633         -52.6392           93.65         -52.6392         93.6506       -0.0191602         144.283
0.599                   -1.37828        -175.645         -52.6163         91.6809         -52.6164         91.6817       -0.0193465         144.206
0.6                     -1.40965        -176.673         -52.5881         89.7384         -52.5881         89.7393       -0.0195352         144.129
0.601                   -1.44412        -177.717         -52.5543         87.8195         -52.5543         87.8205       -0.0197263         144.052
0.602                    -1.4819        -178.778         -52.5147         85.9211         -52.5148         85.9222       -0.0199199         143.975
0.603                    -1.5232        -179.855         -52.4694         84.0403         -52.4695         84.0414       -0.0201161         143.897
0.604                   -1.56828         179.051         -52.4183         82.1738         -52.4183         82.1751       -0.0203151         143.819
0.605                   -1.61741         177.941         -52.3612         80.3188         -52.3612         80.3201       -0.0205169         143.741
0.606                   -1.67088         176.813         -52.2981         78.4719         -52.2981         78.4733       -0.0207216         143.663
0.607                   -1.72901         175.669         -52.2291         76.6301         -52.2291         76.6316       -0.0209294         143.584
0.608                   -1.79215          174.51          -52.154         74.7902          -52.154         74.7917       -0.0211404         143.506
0.609                   -1.86068         173.334         -52.0731         72.9488          -52.073         72.9504       -0.0213546         143.427
0.61                    -1.93501         172.143         -51.9862         71.1028         -51.9861         71.1044       -0.0215721         143.348
0.611                   -2.01558         170.939         -51.8936         69.2488         -51.8935         69.2505       -0.0217931         143.268
0.612                   -2.10285         169.722         -51.7953         67.3836         -51.7952         67.3852       -0.0220177         143.189
0.613                   -2.19732         168.494         -51.6916         65.5038         -51.6915         65.5054       -0.0222458         143.109
0.614                   -2.29953         167.256         -51.5825         63.6062         -51.5824         63.6078       -0.0224778         143.029
0.615                   -2.41004         166.012         -51.4685         61.6875         -51.4684         61.6891       -0.0227135         142.949
0.616                   -2.52941         164.765         -51.3498         59.7446         -51.3497         59.7462       -0.0229532         142.868
0.617                   -2.65827         163.517         -51.2267         57.7746         -51.2265         57.7761       -0.0231968         142.788
0.618                   -2.79721         162.273         -51.0996         55.7744         -51.0995         55.7758       -0.0234445         142.707
0.619                   -2.94686         161.038          -50.969         53.7414         -50.9689         53.7428       -0.0236964         142.626
0.62                    -3.10782         159.819         -50.8354         51.6732         -50.8352         51.6745       -0.0239525         142.544
0.621                   -3.28068         158.622         -50.6993         49.5676         -50.6991         49.5688       -0.0242129         142.462
0.622                   -3.46597         157.455         -50.5612         47.4228          -50.561         47.4239       -0.0244777         142.381
0.623                   -3.66413         156.327         -50.4219         45.2373         -50.4217         45.2383       -0.0247469         142.298
0.624                   -3.87552          155.25         -50.2819         43.0102         -50.2817         43.0111       -0.0250206         142.216
0.625                   -4.10031         154.234         -50.1419          40.741         -50.1417         40.7418       -0.0252988         142.133
0.626                    -4.3385         153.294         -50.0027         38.4298         -50.0025         38.4304       -0.0255816          142.05
0.627                    -4.5898         152.445         -49.8649         36.0771         -49.8647         36.0777       -0.0258691         141.967
0.628                   -4.85359         151.701         -49.7293         33.6843         -49.7291         33.6847       -0.0261613         141.884
0.629                   -5.12881         151.081         -49.5965         31.2531         -49.5963         31.2534       -0.0264583           141.8
0.63                    -5.41392         150.603         -49.4671         28.7859          -49.467         28.7862         -0.02676         141.716
0.631                   -5.70676         150.284         -49.3418         26.2858         -49.3417         26.2861       -0.0270666         141.632
0.632                   -6.00449         150.142         -49.2211         23.7563          -49.221         23.7566       -0.0273781         141.547
0.633                   -6.30351         150.193         -49.1055         21.2014         -49.1053         21.2016       -0.0276946         141.463
0.634                   -6.59943          150.45         -48.9952         18.6254         -48.9951         18.6256        -0.028016         141.378
0.635                   -6.88712          150.92         -48.8907          16.033         -48.8906         16.0333       -0.0283424         141.292
0.636                    -7.1608         151.604          -48.792          13.429         -48.7919         13.4293        -0.028674         141.206
0.637                   -7.41426         152.495         -48.6993         10.8184         -48.6992         10.8187       -0.0290106          141.12
0.638                   -7.64124         153.577         -48.6125         8.20604         -48.6124         8.20641       -0.0293524         141.034
0.639                   -7.83587         154.822         -48.5314         5.59666         -48.5314          5.5971       -0.0296995         140.948
0.64                    -7.99315         156.191          -48.456         2.99481         -48.4559         2.99531       -0.0300518         140.861
0.641                   -8.10949          157.64         -48.3858        0.404674         -48.3857        0.405242       -0.0304095         140.774
0.642                   -8.18304         159.117         -48.3204        -2.16995         -48.3204        -2.16931       -0.0307726         140.686
0.643                   -8.21393          160.57         -48.2595         -4.7257         -48.2595        -4.72498       -0.0311411         140.598
0.644                   -8.20414         161.949         -48.2026        -7.25969         -48.2025        -7.25892       -0.0315152          140.51
0.645                   -8.15727          163.21         -48.1491        -9.76957          -48.149        -9.76873       -0.0318949         140.422
0.646                   -8.07807         164.319         -48.0985        -12.2535         -48.0984        -12.2526       -0.0322803         140.333
0.647                   -7.97197         165.251         -48.0502          -14.71         -48.0501        -14.7091       -0.0326715         140.244
0.648                   -7.84461         165.991         -48.0037        -17.1383         -48.0036        -17.1373       -0.0330686         140.154
0.649                   -7.70145          166.53         -47.9584        -19.5378         -47.9583        -19.5368       -0.0334717         140.064
0.65                    -7.54749          166.87         -47.9138        -21.9087         -47.9137        -21.9076       -0.0338808         139.974
0.651                   -7.38715         167.015         -47.8694         -24.251         -47.8693          -24.25       -0.0342962         139.884
0.652                   -7.22418         166.975         -47.8248        -26.5656         -47.8247        -26.5646       -0.0347179         139.793
0.653                   -7.06166          166.76         -47.7794        -28.8534         -47.7793        -28.8524        -0.035146         139.701
0.654                   -6.90209         166.382         -47.7329        -31.1155         -47.7328        -31.1145       -0.0355807          139.61
0.655                   -6.74741         165.855         -47.6849        -33.3532         -47.6847        -33.3523       -0.0360222         139.518
0.656                   -6.59912         165.191          -47.635        -35.5682         -47.6348        -35.5673       -0.0364706         139.425
0.657                   -6.45834         164.401          -47.583         -37.762         -47.5828        -37.7612        -0.036926         139.332
0.658                   -6.32588         163.496         -47.5285        -39.9366         -47.5283        -39.9358       -0.0373886         139.239
0.659                    -6.2023         162.486         -47.4714        -42.0936         -47.4712        -42.0929       -0.0378586         139.145
0.66                    -6.08802         161.379         -47.4114        -44.2351         -47.4112        -44.2344       -0.0383362         139.051
0.661                   -5.98326         160.183         -47.3483        -46.3629         -47.3482        -46.3623       -0.0388216         138.957
0.662                   -5.88819         158.906         -47.2821        -48.4791         -47.2819        -48.4786        -0.039315         138.862
0.663                   -5.80288         157.552         -47.2125        -50.5856         -47.2123        -50.5852       -0.0398166         138.767
0.664                   -5.72736         156.127         -47.1395        -52.6844         -47.1394        -52.6841       -0.0403266         138.671
0.665                   -5.66164         154.634         -47.0631        -54.7775         -47.0629        -54.7772       -0.0408452         138.575
0.666                   -5.60571         153.078         -46.9831        -56.8668         -46.9829        -56.8666       -0.0413727         138.478
0.667                   -5.55956         151.461         -46.8995        -58.9542         -46.8994        -58.9541       -0.0419094         138.381
0.668                    -5.5232         149.785         -46.8124        -61.0418         -46.8122        -61.0417       -0.0424554         138.283
0.669                   -5.49665         148.052         -46.7217        -63.1313         -46.7216        -63.1312        -0.043011         138.185
0.67                    -5.47996         146.264         -46.6275        -65.2246         -46.6274        -65.2246       -0.0435766         138.086
0.671                   -5.47321          144.42         -46.5299        -67.3236         -46.5297        -67.3237       -0.0441524         137.987
0.672                   -5.47652         142.523         -46.4288          -69.43         -46.4287        -69.4302       -0.0447386         137.888
0.673                   -5.49004         140.571         -46.3244        -71.5457         -46.3243        -71.5459       -0.0453357         137.788
0.674                   -5.51397         138.565         -46.2168        -73.6724         -46.2167        -73.6726       -0.0459438         137.687
0.675                   -5.54855         136.504         -46.1061        -75.8118          -46.106         -75.812       -0.0465633         137.586
0.676                   -5.59409         134.387         -45.9924        -77.9655         -45.9924        -77.9657       -0.0471945         137.484
0.677                   -5.65093         132.214          -45.876        -80.1351         -45.8759        -80.1354       -0.0478378         137.382
0.678                   -5.71948         129.983         -45.7569        -82.3223         -45.7568        -82.3226       -0.0484935          137.28
0.679                   -5.80021         127.692         -45.6353        -84.5286         -45.6353        -84.5289       -0.0491619         137.176
0.68                    -5.89366         125.341         -45.5115        -86.7555         -45.5115        -86.7558       -0.0498434         137.072
0.681                   -6.00043         122.926         -45.3857        -89.0043         -45.3857        -89.0046       -0.0505384         136.968
0.682                    -6.1212         120.447         -45.2581        -91.2763         -45.2581        -91.2766       -0.0512472         136.863
0.683                   -6.25675         117.899         -45.1291        -93.5729         -45.1291        -93.5732       -0.0519702         136.757
0.684                   -6.40793         115.281         -44.9989        -95.8952         -44.9989        -95.8954       -0.0527079         136.651
0.685                   -6.57567          112.59         -44.8677        -98.2441         -44.8677        -98.2443       -0.0534606         136.544
0.686                   -6.76104         109.821          -44.736        -100.621         -44.7361        -100.621       -0.0542287         136.437
0.687                    -6.9652         106.971         -44.6041        -103.026         -44.6042        -103.026       -0.0550127         136.329
0.688                   -7.18943         104.036         -44.4724         -105.46         -44.4724         -105.46        -0.055813          136.22
0.689                   -7.43516          101.01         -44.3412        -107.923         -44.3412        -107.923         -0.05663         136.111
0.69                    -7.70395         97.8873         -44.2109        -110.416          -44.211        -110.416       -0.0574643         136.001
0.691                   -7.99756         94.6611         -44.0821        -112.938         -44.0821        -112.938       -0.0583162          135.89
0.692                   -8.31787         91.3232          -43.955         -115.49         -43.9551        -115.489       -0.0591862         135.779
0.693                   -8.66702         87.8636         -43.8302         -118.07         -43.8302         -118.07       -0.0600749         135.667
0.694                   -9.04734         84.2704          -43.708        -120.678         -43.7081        -120.678       -0.0609828         135.554
0.695                    -9.4614          80.529          -43.589        -123.313         -43.5891        -123.313       -0.0619102          135.44
0.696                   -9.91203          76.621         -43.4735        -125.974         -43.4736        -125.973       -0.0628579         135.326