! TOUCHSTONE file generated by CST MICROWAVE STUDIO
! Date and time: Fri Dec 11 14:12:06 2020
! Project name: Scenario_1_Planar_Body_Tissue_Out_of_Line_v2.cst
! Parameters = {dy1=-17.3; L_HA=400; Ltissue=700; MT=2.54; Rad_Dielectric=30; Rad_Lower=7.3; Rad_Upper=30; Wtissue=700; a_HA=580; a_WG=246; b_HA=500; b_WG=121; c_HA=0; c_WG=187; d_feed=85; dx1=520; h_feed=15; h_lower=18; h_upper=40; hfat=3; hgap=25; hmuscle=50; hskin=1.5}
! Header version: 2018
! Port assignment regex: !\s*Touchstone port\s*([0-9]+)\s*=\s*(CST MWS port|CST DS port)\s*([0-9]+|Zmin|Zmax)\s*\(\"(.*)\"\)(\s*mode\s*([0-9]+))?.*
! Touchstone port assignment:
! Touchstone port 1 = CST MWS port 1 ("")
! Touchstone port 2 = CST MWS port 2 ("")
# GHz S DB R 50
0.5                   -0.0745728        -121.966         -61.3735        -47.8249         -61.3742        -47.8232      -0.00745333         151.146
0.501                 -0.0773174        -122.425         -61.1615         -48.841         -61.1622        -48.8391      -0.00751429         151.081
0.502                 -0.0802449        -122.888         -60.9452        -49.8689         -60.9459        -49.8669      -0.00757587         151.016
0.503                 -0.0833712        -123.355         -60.7245        -50.9093         -60.7252        -50.9072      -0.00763808          150.95
0.504                 -0.0867139        -123.826         -60.4994        -51.9632         -60.5001        -51.9609      -0.00770093         150.885
0.505                 -0.0902922        -124.302         -60.2697        -53.0312         -60.2704        -53.0288      -0.00776444         150.819
0.506                 -0.0941277        -124.782         -60.0354        -54.1142         -60.0361        -54.1117      -0.00782862         150.754
0.507                  -0.098244        -125.266         -59.7964        -55.2133         -59.7971        -55.2107      -0.00789349         150.688
0.508                  -0.102667        -125.755         -59.5525        -56.3296         -59.5533        -56.3268      -0.00795908         150.622
0.509                  -0.107427        -126.249         -59.3037        -57.4641         -59.3045        -57.4612       -0.0080254         150.556
0.51                   -0.112555        -126.748         -59.0499        -58.6181         -59.0506        -58.6151      -0.00809248          150.49
0.511                  -0.118088        -127.253          -58.791        -59.7931         -58.7917        -59.7899      -0.00816035         150.424
0.512                  -0.124065        -127.762         -58.5268        -60.9904         -58.5275        -60.9872      -0.00822904         150.358
0.513                  -0.130532        -128.277         -58.2573        -62.2117          -58.258        -62.2084      -0.00829859         150.292
0.514                  -0.137537        -128.798         -57.9824        -63.4588         -57.9831        -63.4554      -0.00836904         150.225
0.515                  -0.145137        -129.325         -57.7019        -64.7336         -57.7026        -64.7301      -0.00844044         150.159
0.516                  -0.153392        -129.858         -57.4159        -66.0382         -57.4166        -66.0346      -0.00851285         150.093
0.517                  -0.162374        -130.397         -57.1241        -67.3748         -57.1248        -67.3711      -0.00858633         150.026
0.518                  -0.172158        -130.943         -56.8266        -68.7459         -56.8273        -68.7422      -0.00866094         149.959
0.519                  -0.182831        -131.495         -56.5232        -70.1542         -56.5239        -70.1504      -0.00873678         149.893
0.52                   -0.194491        -132.053          -56.214        -71.6026         -56.2146        -71.5988      -0.00881393         149.826
0.521                  -0.207245        -132.619         -55.8988        -73.0944         -55.8993        -73.0906      -0.00889251         149.759
0.522                  -0.221214        -133.191         -55.5776         -74.633         -55.5782        -74.6291      -0.00897263         149.692
0.523                  -0.236534        -133.769         -55.2505        -76.2221          -55.251        -76.2182      -0.00905444         149.624
0.524                  -0.253353        -134.355         -54.9175        -77.8659          -54.918        -77.8619      -0.00913809         149.557
0.525                  -0.271839        -134.947         -54.5787        -79.5687         -54.5792        -79.5648      -0.00922378          149.49
0.526                  -0.292176        -135.546         -54.2342        -81.3354         -54.2346        -81.3315       -0.0093117         149.422
0.527                  -0.314567         -136.15         -53.8841        -83.1712         -53.8846        -83.1673      -0.00940209         149.355
0.528                  -0.339235         -136.76         -53.5289        -85.0815         -53.5293        -85.0776      -0.00949522         149.287
0.529                   -0.36642        -137.374         -53.1687        -87.0724         -53.1691        -87.0685      -0.00959137         149.219
0.53                    -0.39638        -137.991         -52.8042          -89.15         -52.8045        -89.1463      -0.00969089         149.152
0.531                  -0.429388        -138.611         -52.4357        -91.3212          -52.436        -91.3175      -0.00979413         149.084
0.532                  -0.465725         -139.23         -52.0641        -93.5927         -52.0644        -93.5892      -0.00990147         149.016
0.533                  -0.505675        -139.848         -51.6903        -95.9718         -51.6905        -95.9684       -0.0100134         148.947
0.534                  -0.549507         -140.46         -51.3152        -98.4656         -51.3154        -98.4624       -0.0101302         148.879
0.535                  -0.597464        -141.064         -50.9403        -101.081         -50.9404        -101.078       -0.0102525         148.811
0.536                  -0.649735        -141.655          -50.567        -103.826         -50.5671        -103.823       -0.0103806         148.742
0.537                  -0.706427        -142.229         -50.1971        -106.705         -50.1972        -106.702       -0.0105149         148.674
0.538                  -0.767523        -142.779         -49.8327        -109.724         -49.8328        -109.722       -0.0106558         148.605
0.539                  -0.832842        -143.299         -49.4763        -112.887         -49.4763        -112.885       -0.0108034         148.536
0.54                   -0.901988        -143.783         -49.1303        -116.196         -49.1303        -116.195       -0.0109579         148.467
0.541                  -0.974297        -144.222         -48.7977         -119.65         -48.7977        -119.649       -0.0111191         148.399
0.542                    -1.0488        -144.611         -48.4815        -123.245         -48.4814        -123.244       -0.0112865          148.33
0.543                   -1.12421        -144.944         -48.1848        -126.974         -48.1848        -126.973       -0.0114597         148.261
0.544                   -1.19889        -145.215         -47.9109        -130.825         -47.9108        -130.825       -0.0116375         148.191
0.545                   -1.27099        -145.424         -47.6625        -134.784         -47.6625        -134.784       -0.0118187         148.122
0.546                   -1.33843        -145.572         -47.4423         -138.83         -47.4423         -138.83       -0.0120019         148.053
0.547                   -1.39917        -145.662         -47.2525         -142.94         -47.2525        -142.941       -0.0121853         147.984
0.548                    -1.4513        -145.704         -47.0944        -147.089         -47.0945         -147.09       -0.0123674         147.915
0.549                   -1.49327         -145.71         -46.9689        -151.249         -46.9689         -151.25       -0.0125464         147.845
0.55                    -1.52403        -145.694         -46.8757         -155.39         -46.8758        -155.391       -0.0127209         147.776
0.551                   -1.54315        -145.671          -46.814        -159.486         -46.8141        -159.487       -0.0128896         147.706
0.552                    -1.5508        -145.656         -46.7822        -163.511         -46.7823        -163.512       -0.0130517         147.637
0.553                   -1.54773        -145.665          -46.778        -167.442         -46.7782        -167.444       -0.0132067         147.567
0.554                   -1.53511        -145.707         -46.7987        -171.262         -46.7989        -171.263       -0.0133544         147.497
0.555                   -1.51441        -145.793         -46.8413        -174.955         -46.8416        -174.956       -0.0134951         147.428
0.556                   -1.48723        -145.928         -46.9027         -178.51          -46.903        -178.512       -0.0136291         147.358
0.557                   -1.45516        -146.116         -46.9796         178.077         -46.9799         178.076       -0.0137571         147.288
0.558                    -1.4197        -146.356         -47.0692         174.811         -47.0695          174.81         -0.01388         147.217
0.559                   -1.38217        -146.648         -47.1684         171.692         -47.1688         171.691       -0.0139985         147.147
0.56                    -1.34369        -146.989         -47.2748         168.717         -47.2751         168.716       -0.0141134         147.076
0.561                   -1.30517        -147.376          -47.386         165.881         -47.3863         165.881       -0.0142255         147.006
0.562                   -1.26733        -147.806         -47.4999          163.18         -47.5002          163.18       -0.0143356         146.935
0.563                   -1.23072        -148.274         -47.6148         160.607         -47.6151         160.606       -0.0144444         146.864
0.564                   -1.19574        -148.776         -47.7293         158.154         -47.7296         158.154       -0.0145525         146.793
0.565                   -1.16264         -149.31         -47.8419         155.815         -47.8422         155.815       -0.0146603         146.721
0.566                   -1.13163        -149.872         -47.9517         153.582          -47.952         153.582       -0.0147684          146.65
0.567                   -1.10278        -150.459         -48.0579         151.447         -48.0581         151.447       -0.0148771         146.578
0.568                   -1.07615        -151.068         -48.1596         149.404         -48.1598         149.404       -0.0149867         146.507
0.569                   -1.05174        -151.697         -48.2563         147.446         -48.2565         147.446       -0.0150975         146.435
0.57                    -1.02953        -152.344         -48.3477         145.566         -48.3479         145.566       -0.0152097         146.363
0.571                   -1.00946        -153.008         -48.4333         143.758         -48.4334         143.759       -0.0153234          146.29
0.572                  -0.991472        -153.687         -48.5128         142.017          -48.513         142.018       -0.0154389         146.218
0.573                   -0.97551        -154.381         -48.5862         140.337         -48.5863         140.338       -0.0155563         146.146
0.574                  -0.961499        -155.087         -48.6532         138.713         -48.6533         138.714       -0.0156755         146.073
0.575                  -0.949371        -155.805         -48.7137         137.141         -48.7138         137.142       -0.0157968             146
0.576                  -0.939059        -156.535         -48.7678         135.616         -48.7678         135.616       -0.0159202         145.927
0.577                  -0.930501        -157.276         -48.8153         134.134         -48.8153         134.134       -0.0160457         145.854
0.578                  -0.923638        -158.028         -48.8563         132.691         -48.8563         132.692       -0.0161734         145.781
0.579                  -0.918419         -158.79         -48.8909         131.284         -48.8908         131.285       -0.0163033         145.707
0.58                   -0.914798        -159.562          -48.919          129.91         -48.9189         129.911       -0.0164354         145.633
0.581                  -0.912735        -160.344         -48.9407         128.566         -48.9406         128.566       -0.0165698          145.56
0.582                  -0.912197        -161.136         -48.9561         127.248          -48.956         127.249       -0.0167065         145.486
0.583                  -0.913157        -161.938         -48.9652         125.955         -48.9651         125.955       -0.0168455         145.412
0.584                  -0.915595         -162.75         -48.9682         124.683         -48.9681         124.683       -0.0169867         145.337
0.585                  -0.919497        -163.572         -48.9651         123.431          -48.965         123.431       -0.0171304         145.263
0.586                  -0.924854        -164.404         -48.9561         122.196         -48.9559         122.196       -0.0172763         145.188
0.587                  -0.931666        -165.246         -48.9411         120.976         -48.9409         120.976       -0.0174247         145.113
0.588                  -0.939937        -166.099         -48.9203         119.769         -48.9201         119.769       -0.0175754         145.038
0.589                  -0.949677        -166.962         -48.8938         118.574         -48.8936         118.574       -0.0177285         144.963
0.59                   -0.960904        -167.835         -48.8617         117.389         -48.8614         117.388       -0.0178841         144.888
0.591                   -0.97364         -168.72          -48.824         116.211         -48.8238         116.211       -0.0180421         144.812
0.592                  -0.987915        -169.616         -48.7809          115.04         -48.7806          115.04       -0.0182026         144.737
0.593                   -1.00376        -170.523         -48.7324         113.874         -48.7322         113.874       -0.0183656         144.661
0.594                   -1.02123        -171.442         -48.6788         112.711         -48.6785         112.711       -0.0185311         144.585
0.595                   -1.04036        -172.372         -48.6199         111.551         -48.6196          111.55       -0.0186992         144.509
0.596                    -1.0612        -173.315          -48.556         110.391         -48.5557          110.39       -0.0188698         144.432
0.597                   -1.08383        -174.271         -48.4871         109.231         -48.4868          109.23       -0.0190431         144.356
0.598                    -1.1083        -175.239         -48.4133         108.068          -48.413         108.067        -0.019219         144.279
0.599                    -1.1347         -176.22         -48.3347         106.903         -48.3344         106.902       -0.0193976         144.202
0.6                      -1.1631        -177.215         -48.2514         105.733         -48.2511         105.732       -0.0195789         144.125
0.601                    -1.1936        -178.223         -48.1635         104.558         -48.1632         104.557       -0.0197629         144.047
0.602                   -1.22631        -179.246         -48.0711         103.376         -48.0708         103.375       -0.0199498          143.97
0.603                   -1.26132         179.717         -47.9743         102.186          -47.974         102.185       -0.0201396         143.892
0.604                   -1.29875         178.666         -47.8732         100.987         -47.8729         100.986       -0.0203322         143.814
0.605                   -1.33874         177.599         -47.7678         99.7785         -47.7675         99.7774       -0.0205278         143.736
0.606                   -1.38143         176.517         -47.6583         98.5586          -47.658         98.5574       -0.0207264         143.658
0.607                   -1.42695          175.42         -47.5448         97.3264         -47.5445         97.3252       -0.0209281         143.579
0.608                   -1.47548         174.307         -47.4273         96.0809         -47.4271         96.0796       -0.0211328           143.5
0.609                   -1.52719         173.178         -47.3061          94.821         -47.3059         94.8197       -0.0213408         143.421
0.61                    -1.58226         172.032         -47.1812         93.5456         -47.1809         93.5443        -0.021552         143.342
0.611                   -1.64089         170.871         -47.0527         92.2537         -47.0525         92.2524       -0.0217666         143.262
0.612                   -1.70331         169.692         -46.9208         90.9443         -46.9206          90.943       -0.0219845         143.183
0.613                   -1.76974         168.497         -46.7856         89.6163         -46.7853          89.615       -0.0222059         143.103
0.614                   -1.84043         167.285         -46.6471         88.2687         -46.6469         88.2673       -0.0224309         143.023
0.615                   -1.91566         166.056         -46.5057         86.9004         -46.5055         86.8991       -0.0226595         142.942
0.616                   -1.99569          164.81         -46.3614         85.5105         -46.3612         85.5092       -0.0228918         142.862
0.617                   -2.08084         163.548         -46.2144          84.098         -46.2142         84.0967       -0.0231279         142.781
0.618                   -2.17144         162.269         -46.0648          82.662         -46.0646         82.6607       -0.0233679           142.7
0.619                   -2.26783         160.975         -45.9128         81.2014         -45.9127         81.2001       -0.0236119         142.619
0.62                    -2.37039         159.664         -45.7587         79.7154         -45.7586         79.7142         -0.02386         142.537
0.621                   -2.47951         158.339         -45.6026         78.2031         -45.6025         78.2019       -0.0241122         142.455
0.622                   -2.59561             157         -45.4447         76.6637         -45.4446         76.6626       -0.0243688         142.373
0.623                   -2.71914         155.648         -45.2853         75.0965         -45.2852         75.0953       -0.0246298         142.291
0.624                   -2.85058         154.283         -45.1245         73.5006         -45.1244         73.4995       -0.0248953         142.208
0.625                   -2.99043         152.908         -44.9627         71.8754         -44.9626         71.8743       -0.0251654         142.125
0.626                   -3.13923         151.524            -44.8         70.2203         -44.7999         70.2193       -0.0254402         142.042
0.627                   -3.29754         150.133         -44.6368         68.5349         -44.6367         68.5339       -0.0257199         141.959
0.628                   -3.46596         148.738         -44.4733         66.8186         -44.4732         66.8178       -0.0260046         141.875
0.629                   -3.64511         147.341         -44.3098         65.0713         -44.3098         65.0705       -0.0262943         141.791
0.63                    -3.83565         145.945         -44.1467         63.2927         -44.1466          63.292       -0.0265893         141.707
0.631                   -4.03826         144.555         -43.9841         61.4828          -43.984         61.4822       -0.0268895         141.623
0.632                   -4.25368         143.174         -43.8225         59.6417         -43.8224         59.6411       -0.0271952         141.538
0.633                   -4.48263         141.808         -43.6621         57.7695         -43.6621          57.769       -0.0275064         141.453
0.634                   -4.72589         140.463         -43.5033         55.8668         -43.5033         55.8663       -0.0278232         141.368
0.635                   -4.98425         139.144         -43.3465          53.934         -43.3464         53.9336       -0.0281458         141.282
0.636                    -5.2585         137.861         -43.1919         51.9719         -43.1918         51.9716       -0.0284743         141.196
0.637                   -5.54947         136.621         -43.0398         49.9815         -43.0397         49.9812       -0.0288087          141.11
0.638                   -5.85795         135.434         -42.8906         47.9639         -42.8906         47.9637       -0.0291491         141.024
0.639                   -6.18471         134.314         -42.7446         45.9205         -42.7446         45.9203       -0.0294957         140.937
0.64                     -6.5305         133.272         -42.6022         43.8527         -42.6021         43.8525       -0.0298484          140.85
0.641                   -6.89596         132.325         -42.4635         41.7623         -42.4634         41.7622       -0.0302075         140.762
0.642                   -7.28163          131.49         -42.3288         39.6511         -42.3287          39.651       -0.0305728         140.674
0.643                   -7.68785         130.788         -42.1984         37.5213         -42.1984         37.5212       -0.0309446         140.586
0.644                    -8.1147         130.241         -42.0725         35.3751         -42.0725          35.375       -0.0313229         140.498
0.645                   -8.56186         129.878         -41.9513         33.2148         -41.9513         33.2147       -0.0317077         140.409
0.646                    -9.0285         129.729          -41.835         31.0429         -41.8349         31.0429       -0.0320992          140.32
0.647                   -9.51301         129.827         -41.7235         28.8621         -41.7235          28.862       -0.0324972         140.231
0.648                   -10.0127         130.212         -41.6171         26.6749         -41.6171         26.6749       -0.0329019         140.141
0.649                   -10.5237         130.925         -41.5158         24.4842         -41.5157         24.4841       -0.0333134         140.051
0.65                      -11.04         132.009         -41.4196         22.2925         -41.4195         22.2924       -0.0337317          139.96
0.651                   -11.5537         133.505         -41.3284         20.1027         -41.3283         20.1025       -0.0341568         139.869
0.652                   -12.0539         135.449         -41.2422         17.9173         -41.2421         17.9172       -0.0345888         139.778
0.653                   -12.5271         137.865         -41.1608          15.739         -41.1607         15.7389       -0.0350278         139.687
0.654                   -12.9571         140.753         -41.0842         13.5703         -41.0841         13.5701       -0.0354738         139.595
0.655                   -13.3258          144.08         -41.0121         11.4136          -41.012         11.4133        -0.035927         139.502
0.656                   -13.6158         147.775         -40.9444         9.27098         -40.9443         9.27071       -0.0363873          139.41
0.657                   -13.8123         151.726         -40.8807         7.14466         -40.8807         7.14437       -0.0368549         139.317
0.658                   -13.9067         155.785          -40.821         5.03651         -40.8209         5.03619       -0.0373298         139.223
0.659                   -13.8977         159.793         -40.7648         2.94824         -40.7648         2.94789       -0.0378123         139.129
0.66                    -13.7922           163.6          -40.712        0.881382         -40.7119        0.881008       -0.0383024         139.035
0.661                   -13.6033         167.082         -40.6621        -1.16274         -40.6621        -1.16313       -0.0388002          138.94
0.662                   -13.3479          170.16         -40.6149        -3.18299         -40.6149         -3.1834       -0.0393058         138.845
0.663                   -13.0434          172.79         -40.5701        -5.17844         -40.5701        -5.17886       -0.0398195          138.75
0.664                   -12.7062         174.967         -40.5274        -7.14834         -40.5274        -7.14876       -0.0403414         138.654
0.665                   -12.3502         176.707         -40.4864        -9.09212         -40.4864        -9.09254       -0.0408717         138.557
0.666                   -11.9863         178.041         -40.4468        -11.0094         -40.4468        -11.0098       -0.0414105          138.46
0.667                   -11.6229         179.009         -40.4083           -12.9         -40.4083        -12.9004       -0.0419581         138.363
0.668                   -11.2659         179.651         -40.3706        -14.7638         -40.3706        -14.7642       -0.0425146         138.265
0.669                   -10.9196        -179.994         -40.3334        -16.6009         -40.3334        -16.6013       -0.0430803         138.167
0.67                    -10.5865        -179.889         -40.2964        -18.4115         -40.2964        -18.4119       -0.0436555         138.068
0.671                   -10.2685         179.998         -40.2593         -20.196         -40.2594        -20.1964       -0.0442402         137.969
0.672                    -9.9663         179.696         -40.2219        -21.9549          -40.222        -21.9552       -0.0448349         137.869
0.673                   -9.68036         179.229         -40.1839        -23.6885          -40.184        -23.6888       -0.0454396         137.769
0.674                   -9.41063         178.618         -40.1452        -25.3977         -40.1452        -25.3979       -0.0460549         137.668
0.675                   -9.15685         177.883         -40.1053        -27.0831         -40.1054        -27.0833       -0.0466808         137.566
0.676                   -8.91857         177.038         -40.0642        -28.7455         -40.0643        -28.7456       -0.0473177         137.465
0.677                   -8.69525         176.097         -40.0216        -30.3856         -40.0217        -30.3858       -0.0479658         137.362
0.678                   -8.48632         175.071         -39.9774        -32.0045         -39.9775        -32.0046       -0.0486256         137.259
0.679                   -8.29114         173.969         -39.9314        -33.6031         -39.9315        -33.6031       -0.0492972         137.156
0.68                    -8.10909           172.8         -39.8833        -35.1822         -39.8834        -35.1822       -0.0499811         137.052
0.681                   -7.93956         171.571         -39.8332         -36.743         -39.8332         -36.743       -0.0506775         136.947
0.682                   -7.78197         170.287         -39.7807        -38.2864         -39.7808        -38.2863       -0.0513869         136.842
0.683                   -7.63574         168.954         -39.7258        -39.8135         -39.7259        -39.8134       -0.0521095         136.736
0.684                   -7.50035         167.575         -39.6684        -41.3253         -39.6685        -41.3252       -0.0528456         136.629
0.685                   -7.37531         166.154         -39.6084        -42.8229         -39.6084        -42.8228       -0.0535958         136.522
0.686                   -7.26013         164.694         -39.5456        -44.3075         -39.5457        -44.3073       -0.0543604         136.415
0.687                    -7.1544         163.197           -39.48          -45.78           -39.48        -45.7799       -0.0551397         136.306
0.688                   -7.05772         161.666         -39.4115        -47.2417         -39.4115        -47.2415       -0.0559341         136.197
0.689                   -6.96972         160.102         -39.3399        -48.6935           -39.34        -48.6934       -0.0567442         136.087
0.69                    -6.89007         158.506         -39.2654        -50.1367         -39.2654        -50.1366       -0.0575702         135.977
0.691                   -6.81847          156.88         -39.1877        -51.5723         -39.1877        -51.5722       -0.0584127         135.866
0.692                   -6.75464         155.223         -39.1069        -53.0015         -39.1069        -53.0014       -0.0592721         135.754
0.693                   -6.69834         153.537         -39.0229        -54.4253         -39.0228        -54.4252       -0.0601488         135.642
0.694                   -6.64934         151.822         -38.9356        -55.8448         -38.9356        -55.8448       -0.0610434         135.529
0.695                   -6.60746         150.078         -38.8451        -57.2613          -38.845        -57.2613       -0.0619563         135.415
0.696                   -6.57251         148.305         -38.7512        -58.6758         -38.7512        -58.6759        -0.062888           135.3