! TOUCHSTONE file generated by CST MICROWAVE STUDIO
! Date and time: Mon Nov 30 09:08:33 2020
! Project name: Scenario_1_Planar_Body_Tissue_Out_of_Line_v2.cst
! Parameters = {dy1=0; L_HA=400; Ltissue=700; MT=2.54; Rad_Dielectric=30; Rad_Lower=7.3; Rad_Upper=30; Wtissue=700; a_HA=580; a_WG=246; b_HA=500; b_WG=121; c_HA=0; c_WG=187; d_feed=85; dx1=346; h_feed=15; h_lower=18; h_upper=40; hfat=3; hgap=25; hmuscle=50; hskin=1.5}
! Header version: 2018
! Port assignment regex: !\s*Touchstone port\s*([0-9]+)\s*=\s*(CST MWS port|CST DS port)\s*([0-9]+|Zmin|Zmax)\s*\(\"(.*)\"\)(\s*mode\s*([0-9]+))?.*
! Touchstone port assignment:
! Touchstone port 1 = CST MWS port 1 ("")
! Touchstone port 2 = CST MWS port 2 ("")
# GHz S DB R 50
0.5                    -0.296059        -121.732         -55.0168         35.9218         -55.0166         35.9219      -0.00801979         151.147
0.501                  -0.295382        -122.131         -55.0739         34.9409         -55.0733         34.9388      -0.00808341         151.082
0.502                  -0.294765        -122.533         -55.1295         33.9374         -55.1285         33.9332      -0.00814752         151.017
0.503                  -0.294207        -122.938         -55.1835         32.9111         -55.1821         32.9051      -0.00821213         150.952
0.504                   -0.29371        -123.346         -55.2357          31.862         -55.2338         31.8541      -0.00827724         150.886
0.505                  -0.293277        -123.756          -55.286         30.7897         -55.2837         30.7803      -0.00834286         150.821
0.506                  -0.292909        -124.168         -55.3342         29.6943         -55.3315         29.6835      -0.00840898         150.756
0.507                  -0.292607        -124.584         -55.3802         28.5757         -55.3771         28.5636      -0.00847561          150.69
0.508                  -0.292374        -125.002         -55.4239         27.4339         -55.4204         27.4206      -0.00854275         150.624
0.509                  -0.292212        -125.423         -55.4651         26.2688         -55.4611         26.2546      -0.00861041         150.559
0.51                   -0.292122        -125.847         -55.5036         25.0807         -55.4992         25.0657      -0.00867858         150.493
0.511                  -0.292106        -126.274         -55.5393         23.8696         -55.5345          23.854      -0.00874727         150.427
0.512                  -0.292168        -126.703          -55.572         22.6358         -55.5668         22.6198      -0.00881649         150.361
0.513                  -0.292308        -127.136         -55.6015         21.3795         -55.5959         21.3632      -0.00888622         150.295
0.514                   -0.29253        -127.572         -55.6278         20.1011         -55.6218         20.0847      -0.00895649         150.229
0.515                  -0.292836        -128.011         -55.6505          18.801         -55.6442         18.7847      -0.00902728         150.162
0.516                  -0.293228        -128.453         -55.6696         17.4796         -55.6629         17.4636      -0.00909861         150.096
0.517                  -0.293709        -128.898         -55.6849         16.1375         -55.6779         16.1219      -0.00917048          150.03
0.518                  -0.294283        -129.347         -55.6963         14.7754         -55.6889         14.7603      -0.00924289         149.963
0.519                  -0.294951        -129.798         -55.7035         13.3939         -55.6958         13.3795      -0.00931584         149.897
0.52                   -0.295717        -130.254         -55.7064         11.9938         -55.6984         11.9802      -0.00938934          149.83
0.521                  -0.296584        -130.712         -55.7049         10.5759         -55.6966         10.5632       -0.0094634         149.763
0.522                  -0.297556        -131.174         -55.6989         9.14104         -55.6904         9.12946      -0.00953802         149.697
0.523                  -0.298636         -131.64         -55.6882         7.69028         -55.6794         7.67988      -0.00961319          149.63
0.524                  -0.299827        -132.109         -55.6727          6.2246         -55.6637         6.21548      -0.00968894         149.563
0.525                  -0.301134        -132.582         -55.6522         4.74507          -55.643         4.73732      -0.00976526         149.496
0.526                  -0.302561        -133.058         -55.6268         3.25281         -55.6174          3.2465      -0.00984215         149.428
0.527                  -0.304112        -133.538         -55.5962         1.74898         -55.5867         1.74418      -0.00991963         149.361
0.528                   -0.30579        -134.022         -55.5605        0.234791         -55.5509         0.23155      -0.00999769         149.294
0.529                  -0.307602         -134.51         -55.5195        -1.28854         -55.5098        -1.29019       -0.0100764         149.226
0.53                   -0.309552        -135.002         -55.4732        -2.81977         -55.4635        -2.81979       -0.0101556         149.159
0.531                  -0.311644        -135.499         -55.4215        -4.35763         -55.4118        -4.35603       -0.0102355         149.091
0.532                  -0.313885        -135.999         -55.3646        -5.90087         -55.3548        -5.89764       -0.0103159         149.023
0.533                   -0.31628        -136.503         -55.3022        -7.44823         -55.2925        -7.44338        -0.010397         148.956
0.534                  -0.318835        -137.012         -55.2345        -8.99847         -55.2249        -8.99203       -0.0104788         148.888
0.535                  -0.321557        -137.525         -55.1615        -10.5504         -55.1519        -10.5424       -0.0105611          148.82
0.536                  -0.324451        -138.043         -55.0831        -12.1028         -55.0736        -12.0933       -0.0106441         148.752
0.537                  -0.327526        -138.565         -54.9995        -13.6545         -54.9901        -13.6435       -0.0107277         148.683
0.538                  -0.330788        -139.092         -54.9106        -15.2044         -54.9014        -15.1921        -0.010812         148.615
0.539                  -0.334245        -139.624         -54.8166        -16.7515         -54.8076        -16.7379        -0.010897         148.547
0.54                   -0.337906         -140.16         -54.7175        -18.2948         -54.7087          -18.28       -0.0109826         148.478
0.541                  -0.341778        -140.702         -54.6135        -19.8334         -54.6048        -19.8175       -0.0110689         148.409
0.542                  -0.345873        -141.248         -54.5045        -21.3664         -54.4961        -21.3494       -0.0111559         148.341
0.543                  -0.350198          -141.8         -54.3908         -22.893         -54.3825        -22.8751       -0.0112436         148.272
0.544                  -0.354764        -142.357         -54.2723        -24.4126         -54.2643        -24.3938        -0.011332         148.203
0.545                  -0.359583         -142.92         -54.1493        -25.9244         -54.1416        -25.9049       -0.0114211         148.134
0.546                  -0.364665        -143.488         -54.0219         -27.428         -54.0144        -27.4079        -0.011511         148.065
0.547                  -0.370024        -144.061         -53.8901        -28.9229         -53.8828        -28.9022       -0.0116015         147.995
0.548                  -0.375672        -144.641          -53.754        -30.4086         -53.7471        -30.3875       -0.0116929         147.926
0.549                  -0.381622        -145.226         -53.6139        -31.8849         -53.6072        -31.8635        -0.011785         147.856
0.55                    -0.38789        -145.818         -53.4698        -33.3515         -53.4634        -33.3299       -0.0118778         147.787
0.551                   -0.39449        -146.416         -53.3219        -34.8083         -53.3157        -34.7866       -0.0119715         147.717
0.552                  -0.401441         -147.02         -53.1702        -36.2551         -53.1643        -36.2334       -0.0120659         147.647
0.553                  -0.408758         -147.63         -53.0149         -37.692         -53.0093        -37.6704       -0.0121612         147.577
0.554                  -0.416461        -148.248         -52.8561        -39.1191         -52.8508        -39.0976       -0.0122572         147.507
0.555                   -0.42457        -148.872         -52.6939        -40.5363         -52.6888        -40.5151       -0.0123542         147.437
0.556                  -0.433107        -149.503         -52.5284         -41.944         -52.5236        -41.9231       -0.0124519         147.367
0.557                  -0.442093        -150.142         -52.3598        -43.3424         -52.3553        -43.3218       -0.0125506         147.296
0.558                  -0.451553        -150.788         -52.1881        -44.7317         -52.1838        -44.7116       -0.0126501         147.225
0.559                  -0.461514        -151.441         -52.0134        -46.1123         -52.0093        -46.0927       -0.0127506         147.155
0.56                   -0.472002        -152.102         -51.8358        -47.4847          -51.832        -47.4657       -0.0128519         147.084
0.561                  -0.483048        -152.772         -51.6554        -48.8492         -51.6518        -48.8308       -0.0129543         147.013
0.562                  -0.494684        -153.449         -51.4722        -50.2064         -51.4689        -50.1887       -0.0130575         146.942
0.563                  -0.506942        -154.135         -51.2864        -51.5568         -51.2834        -51.5398       -0.0131618         146.871
0.564                  -0.519861         -154.83         -51.0981         -52.901         -51.0952        -52.8847       -0.0132671         146.799
0.565                  -0.533479        -155.534         -50.9072        -54.2396         -50.9045        -54.2241       -0.0133734         146.728
0.566                  -0.547838        -156.246         -50.7138        -55.5734         -50.7114        -55.5586       -0.0134808         146.656
0.567                  -0.562983        -156.969         -50.5181        -56.9029         -50.5158         -56.889       -0.0135893         146.584
0.568                  -0.578963        -157.701           -50.32        -58.2289         -50.3179        -58.2158       -0.0136988         146.512
0.569                  -0.595831        -158.443         -50.1196        -59.5522         -50.1177        -59.5399       -0.0138096          146.44
0.57                   -0.613642        -159.195         -49.9169        -60.8736         -49.9152        -60.8621       -0.0139215         146.368
0.571                  -0.632458        -159.958          -49.712        -62.1938         -49.7104        -62.1833       -0.0140346         146.296
0.572                  -0.652344        -160.731         -49.5049        -63.5139         -49.5035        -63.5041        -0.014149         146.223
0.573                  -0.673371        -161.516         -49.2956        -64.8345         -49.2943        -64.8256       -0.0142647         146.151
0.574                  -0.695616        -162.312         -49.0842        -66.1568         -49.0831        -66.1487       -0.0143818         146.078
0.575                   -0.71916        -163.121         -48.8706        -67.4816         -48.8697        -67.4743       -0.0145002         146.005
0.576                  -0.744094        -163.941          -48.655        -68.8099         -48.6542        -68.8034         -0.01462         145.932
0.577                  -0.770513        -164.774         -48.4373        -70.1427         -48.4366         -70.137       -0.0147414         145.858
0.578                  -0.798524         -165.62         -48.2175        -71.4811         -48.2169        -71.4762       -0.0148643         145.785
0.579                   -0.82824        -166.478         -47.9957        -72.8261         -47.9952        -72.8219       -0.0149888         145.711
0.58                   -0.859784        -167.351         -47.7719        -74.1789         -47.7715        -74.1755        -0.015115         145.638
0.581                  -0.893289        -168.237         -47.5461        -75.5407         -47.5458        -75.5379        -0.015243         145.564
0.582                  -0.928902        -169.138         -47.3183        -76.9125         -47.3181        -76.9104       -0.0153728          145.49
0.583                  -0.966781        -170.053         -47.0886        -78.2957         -47.0884        -78.2942       -0.0155045         145.415
0.584                    -1.0071        -170.984         -46.8569        -79.6916         -46.8568        -79.6907       -0.0156382         145.341
0.585                   -1.05004        -171.929         -46.6233        -81.1013         -46.6233         -81.101       -0.0157741         145.266
0.586                    -1.0958        -172.891         -46.3878        -82.5263         -46.3879        -82.5265       -0.0159121         145.192
0.587                   -1.14462        -173.868         -46.1505         -83.968         -46.1507        -83.9687       -0.0160526         145.117
0.588                   -1.19673        -174.861         -45.9114        -85.4278         -45.9117         -85.429       -0.0161954         145.042
0.589                   -1.25239         -175.87         -45.6706        -86.9072         -45.6709        -86.9088       -0.0163409         144.966
0.59                    -1.31189        -176.896          -45.428        -88.4078         -45.4284        -88.4097       -0.0164891         144.891
0.591                   -1.37555        -177.939         -45.1839         -89.931         -45.1843        -89.9333       -0.0166403         144.815
0.592                   -1.44369        -178.998         -44.9382        -91.4785         -44.9386        -91.4811       -0.0167945         144.739
0.593                    -1.5167         179.927          -44.691        -93.0521         -44.6915        -93.0549        -0.016952         144.663
0.594                   -1.59497         178.835         -44.4425        -94.6533          -44.443        -94.6563       -0.0171129         144.587
0.595                   -1.67895         177.728         -44.1928        -96.2839         -44.1934        -96.2872       -0.0172776         144.511
0.596                    -1.7691         176.605          -43.942        -97.9457         -43.9426        -97.9491       -0.0174461         144.434
0.597                   -1.86595         175.469         -43.6903        -99.6405         -43.6909         -99.644       -0.0176187         144.357
0.598                   -1.97005         174.319         -43.4379         -101.37         -43.4385        -101.374       -0.0177958          144.28
0.599                   -2.08201         173.158         -43.1849        -103.136         -43.1856         -103.14       -0.0179774         144.203
0.6                     -2.20248         171.987         -42.9317        -104.941         -42.9323        -104.945       -0.0181641         144.126
0.601                   -2.33216         170.809         -42.6784        -106.786         -42.6791         -106.79       -0.0183559         144.048
0.602                    -2.4718         169.626         -42.4254        -108.673         -42.4261        -108.676       -0.0185532          143.97
0.603                    -2.6222         168.443          -42.173        -110.603         -42.1737        -110.607       -0.0187564         143.892
0.604                   -2.78419         167.263         -41.9216        -112.579         -41.9222        -112.583       -0.0189657         143.814
0.605                   -2.95867         166.092         -41.6715        -114.602         -41.6721        -114.605       -0.0191814         143.735
0.606                   -3.14654         164.936         -41.4232        -116.673         -41.4239        -116.676       -0.0194038         143.657
0.607                   -3.34875         163.804         -41.1772        -118.793         -41.1778        -118.796       -0.0196333         143.578
0.608                   -3.56623         162.704          -40.934        -120.963         -40.9346        -120.966       -0.0198701         143.499
0.609                    -3.7999         161.647         -40.6941        -123.185         -40.6947        -123.187       -0.0201144         143.419
0.61                    -4.05061         160.647         -40.4582        -125.458         -40.4587         -125.46       -0.0203666          143.34
0.611                   -4.31913         159.718         -40.2268        -127.782         -40.2273        -127.783       -0.0206267          143.26
0.612                   -4.60602         158.879         -40.0005        -130.157          -40.001        -130.158       -0.0208949          143.18
0.613                   -4.91162         158.149         -39.7801        -132.582         -39.7805        -132.583       -0.0211714           143.1
0.614                   -5.23588         157.552         -39.5662        -135.055         -39.5666        -135.056       -0.0214561         143.019
0.615                   -5.57823         157.116         -39.3595        -137.576         -39.3598        -137.577       -0.0217491         142.939
0.616                   -5.93741          156.87         -39.1606        -140.141         -39.1609        -140.142       -0.0220502         142.858
0.617                   -6.31125         156.846         -38.9702        -142.748         -38.9705        -142.748       -0.0223593         142.777
0.618                   -6.69635          157.08          -38.789        -145.392         -38.7892        -145.392       -0.0226762         142.696
0.619                   -7.08785         157.606         -38.6175         -148.07         -38.6176        -148.071       -0.0230005         142.614
0.62                    -7.47911         158.457         -38.4561        -150.778         -38.4562        -150.778       -0.0233318         142.533
0.621                   -7.86152          159.66         -38.3054        -153.509         -38.3055        -153.509       -0.0236698         142.451
0.622                   -8.22444         161.231         -38.1657        -156.259         -38.1657        -156.259       -0.0240139         142.369
0.623                   -8.55556         163.168         -38.0372        -159.021         -38.0371        -159.021       -0.0243637         142.286
0.624                   -8.84159         165.446           -37.92         -161.79           -37.92         -161.79       -0.0247186         142.204
0.625                   -9.06965         168.014         -37.8143        -164.559         -37.8142        -164.558       -0.0250779         142.121
0.626                   -9.22888          170.79           -37.72        -167.321         -37.7199        -167.321       -0.0254412         142.038
0.627                   -9.31223         173.673         -37.6368        -170.072         -37.6366        -170.072       -0.0258078         141.955
0.628                   -9.31774         176.548         -37.5645        -172.804         -37.5643        -172.804       -0.0261773         141.872
0.629                    -9.2488         179.304         -37.5026        -175.513         -37.5024        -175.512       -0.0265492         141.788
0.63                    -9.11347        -178.156         -37.4508        -178.192         -37.4506        -178.191        -0.026923         141.704
0.631                   -8.92294        -175.901         -37.4084         179.163         -37.4082         179.163       -0.0272983          141.62
0.632                   -8.68979        -173.976         -37.3748         176.556         -37.3746         176.556       -0.0276749         141.536
0.633                   -8.42641        -172.398         -37.3494         173.991         -37.3492         173.991       -0.0280525         141.451
0.634                   -8.14397        -171.164         -37.3314         171.472         -37.3312         171.472       -0.0284308         141.366
0.635                   -7.85186        -170.257         -37.3201             169         -37.3199             169       -0.0288098         141.281
0.636                   -7.55754        -169.651         -37.3147         166.578         -37.3146         166.578       -0.0291895         141.196
0.637                   -7.26667        -169.317         -37.3146         164.207         -37.3145         164.207       -0.0295699          141.11
0.638                   -6.98336        -169.225         -37.3189         161.888         -37.3188         161.888        -0.029951         141.024
0.639                   -6.71042        -169.344         -37.3269         159.622         -37.3269         159.622        -0.030333         140.938
0.64                     -6.4497        -169.647         -37.3381         157.409         -37.3381         157.409        -0.030716         140.851
0.641                   -6.20227         -170.11         -37.3516         155.248         -37.3516         155.248       -0.0311004         140.764
0.642                   -5.96865        -170.711         -37.3669         153.139         -37.3669         153.139       -0.0314862         140.677
0.643                   -5.74895         -171.43         -37.3833          151.08         -37.3834          151.08       -0.0318738          140.59
0.644                     -5.543        -172.251         -37.4004         149.071         -37.4006         149.072       -0.0322635         140.502
0.645                   -5.35045         -173.16         -37.4176          147.11         -37.4178         147.111       -0.0326557         140.413
0.646                   -5.17082        -174.145         -37.4345         145.196         -37.4347         145.197       -0.0330505         140.325
0.647                   -5.00352        -175.195         -37.4505         143.327         -37.4508         143.328       -0.0334485         140.236
0.648                   -4.84798        -176.303         -37.4654         141.501         -37.4657         141.502       -0.0338498         140.147
0.649                   -4.70356         -177.46         -37.4787         139.716         -37.4791         139.718        -0.034255         140.057
0.65                    -4.56967        -178.662         -37.4901         137.971         -37.4905         137.972       -0.0346642         139.967
0.651                    -4.4457        -179.901         -37.4994         136.263         -37.4999         136.264       -0.0350779         139.877
0.652                   -4.33107         178.825         -37.5063          134.59         -37.5068         134.592       -0.0354965         139.786
0.653                   -4.22526          177.52         -37.5105         132.951          -37.511         132.953       -0.0359201         139.695
0.654                   -4.12774         176.187         -37.5118         131.343         -37.5123         131.345       -0.0363493         139.603
0.655                   -4.03803         174.829         -37.5101         129.764         -37.5106         129.767       -0.0367842         139.511
0.656                    -3.9557         173.447         -37.5051         128.213         -37.5057         128.216       -0.0372254         139.419
0.657                   -3.88033         172.043         -37.4968         126.688         -37.4974         126.691       -0.0376729         139.326
0.658                   -3.81154         170.618         -37.4849         125.186         -37.4856          125.19       -0.0381273         139.233
0.659                   -3.74899         169.172         -37.4695         123.707         -37.4702          123.71       -0.0385888         139.139
0.66                    -3.69236         167.707         -37.4504         122.247         -37.4511         122.251       -0.0390576         139.045
0.661                   -3.64135         166.224         -37.4275         120.806         -37.4282         120.809       -0.0395342         138.951
0.662                   -3.59571         164.721         -37.4008         119.381         -37.4015         119.385       -0.0400188         138.856
0.663                    -3.5552         163.199         -37.3703         117.971          -37.371         117.975       -0.0405118          138.76
0.664                    -3.5196         161.659         -37.3358         116.574         -37.3365         116.578       -0.0410133         138.665
0.665                   -3.48872           160.1         -37.2974         115.189         -37.2981         115.193       -0.0415238         138.568
0.666                    -3.4624         158.521          -37.255         113.813         -37.2557         113.818       -0.0420436         138.472
0.667                   -3.44048         156.923         -37.2087         112.446         -37.2094         112.451       -0.0425728         138.375
0.668                   -3.42282         155.304         -37.1584         111.086         -37.1591         111.091       -0.0431119         138.277
0.669                   -3.40932         153.664         -37.1042         109.731         -37.1049         109.736       -0.0436611         138.179
0.67                    -3.39988         152.003          -37.046          108.38         -37.0467         108.385       -0.0442208          138.08
0.671                   -3.39441         150.319          -36.984         107.032         -36.9846         107.037       -0.0447912         137.981
0.672                   -3.39284         148.612         -36.9181         105.684         -36.9187         105.689       -0.0453727         137.881
0.673                   -3.39513         146.882         -36.8484         104.336          -36.849         104.341       -0.0459656         137.781
0.674                   -3.40124         145.126         -36.7749         102.986         -36.7755         102.991       -0.0465702          137.68
0.675                   -3.41113         143.344         -36.6977         101.632         -36.6984         101.638       -0.0471868         137.579
0.676                    -3.4248         141.536          -36.617         100.274         -36.6176          100.28       -0.0478157         137.477
0.677                   -3.44224         139.699         -36.5327         98.9106         -36.5332         98.9161       -0.0484573         137.375
0.678                   -3.46346         137.833         -36.4449         97.5396         -36.4454         97.5451        -0.049112         137.272
0.679                   -3.48849         135.936         -36.3538         96.1603         -36.3543         96.1658         -0.04978         137.169
0.68                    -3.51735         134.007         -36.2594         94.7713         -36.2599         94.7767       -0.0504618         137.065
0.681                    -3.5501         132.045         -36.1618         93.3714         -36.1623         93.3767       -0.0511577          136.96
0.682                   -3.58678         130.049         -36.0613         91.9594         -36.0617         91.9647       -0.0518681         136.855
0.683                   -3.62746         128.016         -35.9578         90.5341         -35.9582         90.5393       -0.0525933         136.749
0.684                    -3.6722         125.946         -35.8516         89.0945          -35.852         89.0996       -0.0533338         136.643
0.685                    -3.7211         123.837         -35.7428         87.6395         -35.7432         87.6444       -0.0540899         136.536
0.686                   -3.77423         121.686         -35.6315         86.1679         -35.6319         86.1727       -0.0548621         136.429
0.687                   -3.83171         119.493          -35.518         84.6788         -35.5183         84.6835       -0.0556508          136.32
0.688                   -3.89363         117.256         -35.4023         83.1712         -35.4026         83.1757       -0.0564563         136.211
0.689                   -3.96011         114.971         -35.2848         81.6442         -35.2851         81.6486       -0.0572793         136.102
0.69                    -4.03127         112.639         -35.1656          80.097         -35.1658         80.1012       -0.0581201         135.992
0.691                   -4.10722         110.256         -35.0448         78.5287          -35.045         78.5327       -0.0589791         135.881
0.692                    -4.1881          107.82         -34.9228         76.9387          -34.923         76.9425        -0.059857         135.769
0.693                   -4.27404          105.33         -34.7997         75.3263         -34.7999         75.3299       -0.0607541         135.657
0.694                   -4.36516         102.782         -34.6758         73.6909         -34.6759         73.6943        -0.061671         135.544
0.695                    -4.4616         100.175         -34.5513         72.0321         -34.5515         72.0353       -0.0626082          135.43
0.696                   -4.56347         97.5048         -34.4266         70.3496         -34.4267         70.3525       -0.0635662         135.315