! TOUCHSTONE file generated by CST MICROWAVE STUDIO
! Date and time: Mon Nov 30 09:08:45 2020
! Project name: Scenario_1_Planar_Body_Tissue_Out_of_Line_v2.cst
! Parameters = {dy1=17.3; L_HA=400; Ltissue=700; MT=2.54; Rad_Dielectric=30; Rad_Lower=7.3; Rad_Upper=30; Wtissue=700; a_HA=580; a_WG=246; b_HA=500; b_WG=121; c_HA=0; c_WG=187; d_feed=85; dx1=346; h_feed=15; h_lower=18; h_upper=40; hfat=3; hgap=25; hmuscle=50; hskin=1.5}
! Header version: 2018
! Port assignment regex: !\s*Touchstone port\s*([0-9]+)\s*=\s*(CST MWS port|CST DS port)\s*([0-9]+|Zmin|Zmax)\s*\(\"(.*)\"\)(\s*mode\s*([0-9]+))?.*
! Touchstone port assignment:
! Touchstone port 1 = CST MWS port 1 ("")
! Touchstone port 2 = CST MWS port 2 ("")
# GHz S DB R 50
0.5                    -0.295598        -121.737         -55.0601         35.6882         -55.0601         35.6883      -0.00801934          151.15
0.501                  -0.302978        -122.097         -54.9201         33.3657         -54.9201         33.3635      -0.00810762         151.085
0.502                  -0.309595        -122.458         -54.7893         31.0163         -54.7893         31.0119      -0.00819329          151.02
0.503                  -0.315447        -122.821         -54.6681         28.6467         -54.6681         28.6405      -0.00827654         150.955
0.504                  -0.320541        -123.185         -54.5568          26.264         -54.5569         26.2561       -0.0083575          150.89
0.505                  -0.324899        -123.552         -54.4556         23.8755         -54.4558         23.8662      -0.00843636         150.824
0.506                  -0.328551        -123.922         -54.3645         21.4886         -54.3648         21.4783      -0.00851328         150.759
0.507                  -0.331534        -124.295         -54.2834         19.1108         -54.2837         19.0997       -0.0085884         150.694
0.508                  -0.333893        -124.673          -54.212         16.7493         -54.2124         16.7375       -0.0086619         150.628
0.509                  -0.335679        -125.055         -54.1499         14.4107         -54.1504         14.3986      -0.00873392         150.563
0.51                   -0.336946        -125.441         -54.0966         12.1016         -54.0972         12.0893      -0.00880462         150.497
0.511                  -0.337747        -125.833         -54.0515         9.82749         -54.0521         9.81528      -0.00887414         150.431
0.512                  -0.338141        -126.229         -54.0139         7.59359         -54.0146         7.58163      -0.00894262         150.365
0.513                  -0.338181        -126.632         -53.9831         5.40422         -53.9838         5.39266      -0.00901021         150.299
0.514                  -0.337923        -127.039         -53.9583         3.26299          -53.959         3.25196      -0.00907703         150.233
0.515                   -0.33742        -127.452         -53.9385         1.17276         -53.9392         1.16236      -0.00914321         150.167
0.516                  -0.336719        -127.871         -53.9231       -0.864334         -53.9238       -0.874014      -0.00920888         150.101
0.517                  -0.335869        -128.296         -53.9111        -2.84683         -53.9118        -2.85573      -0.00927416         150.035
0.518                  -0.334913        -128.726         -53.9018         -4.7739         -53.9024        -4.78197      -0.00933914         149.968
0.519                   -0.33389        -129.162         -53.8944         -6.6453          -53.895        -6.65252      -0.00940395         149.902
0.52                   -0.332839        -129.604         -53.8881        -8.46128         -53.8887        -8.46764      -0.00946868         149.835
0.521                  -0.331791        -130.051         -53.8823        -10.2225         -53.8828         -10.228      -0.00953343         149.769
0.522                  -0.330778        -130.504         -53.8764        -11.9301         -53.8768        -11.9348      -0.00959829         149.702
0.523                  -0.329827        -130.963         -53.8696        -13.5854           -53.87        -13.5892      -0.00966336         149.635
0.524                  -0.328962        -131.427         -53.8616        -15.1899         -53.8619         -15.193       -0.0097287         149.568
0.525                  -0.328206        -131.896         -53.8518        -16.7456          -53.852        -16.7479      -0.00979441         149.501
0.526                  -0.327579        -132.371         -53.8399        -18.2542           -53.84        -18.2559      -0.00986055         149.434
0.527                  -0.327098        -132.851         -53.8253         -19.718         -53.8253         -19.719       -0.0099272         149.367
0.528                  -0.326779        -133.337         -53.8078        -21.1388         -53.8078        -21.1392      -0.00999441         149.299
0.529                  -0.326636        -133.828         -53.7871        -22.5189          -53.787        -22.5188       -0.0100623         149.232
0.53                   -0.326683        -134.324         -53.7629        -23.8604         -53.7628        -23.8599       -0.0101308         149.164
0.531                  -0.326931        -134.825         -53.7351        -25.1653         -53.7349        -25.1644       -0.0102001         149.097
0.532                   -0.32739        -135.332         -53.7034        -26.4357         -53.7032        -26.4345       -0.0102702         149.029
0.533                  -0.328071        -135.843         -53.6677        -27.6735         -53.6675        -27.6722       -0.0103411         148.961
0.534                  -0.328982         -136.36         -53.6279        -28.8808         -53.6277        -28.8793       -0.0104129         148.893
0.535                  -0.330132        -136.882         -53.5839        -30.0594         -53.5837        -30.0579       -0.0104857         148.825
0.536                  -0.331529         -137.41         -53.5356        -31.2109         -53.5355        -31.2095       -0.0105594         148.757
0.537                  -0.333181        -137.942          -53.483        -32.3373         -53.4829        -32.3361       -0.0106341         148.689
0.538                  -0.335096         -138.48         -53.4261        -33.4399          -53.426         -33.439       -0.0107099          148.62
0.539                  -0.337281        -139.023         -53.3648        -34.5205         -53.3647          -34.52       -0.0107867         148.552
0.54                   -0.339744        -139.572         -53.2992        -35.5804         -53.2992        -35.5805       -0.0108647         148.483
0.541                  -0.342494        -140.126         -53.2293         -36.621         -53.2293        -36.6219       -0.0109438         148.415
0.542                  -0.345537        -140.685          -53.155        -37.6437         -53.1551        -37.6454        -0.011024         148.346
0.543                  -0.348882         -141.25         -53.0766        -38.6498         -53.0767        -38.6525       -0.0111055         148.277
0.544                  -0.352539        -141.821          -52.994        -39.6404         -52.9941        -39.6442       -0.0111881         148.208
0.545                  -0.356517        -142.397         -52.9074        -40.6168         -52.9075        -40.6218        -0.011272         148.139
0.546                  -0.360824        -142.979         -52.8167        -41.5801         -52.8168        -41.5864       -0.0113571          148.07
0.547                  -0.365472        -143.567         -52.7221        -42.5315         -52.7222        -42.5392       -0.0114435             148
0.548                  -0.370472        -144.161         -52.6238        -43.4721         -52.6238        -43.4813       -0.0115312         147.931
0.549                  -0.375835        -144.761         -52.5217        -44.4031         -52.5216        -44.4139       -0.0116202         147.861
0.55                   -0.381575        -145.367          -52.416        -45.3258         -52.4158         -45.338       -0.0117105         147.791
0.551                  -0.387705        -145.979         -52.3069        -46.2412         -52.3065        -46.2549       -0.0118021         147.722
0.552                  -0.394239        -146.598         -52.1943        -47.1508         -52.1938        -47.1658        -0.011895         147.652
0.553                  -0.401193        -147.223         -52.0785        -48.0558         -52.0778         -48.072       -0.0119894         147.582
0.554                  -0.408584        -147.855         -51.9595        -48.9576         -51.9586        -48.9748        -0.012085         147.511
0.555                  -0.416431        -148.494         -51.8374        -49.8576         -51.8362        -49.8756       -0.0121821         147.441
0.556                  -0.424753         -149.14         -51.7122        -50.7572         -51.7107        -50.7757       -0.0122805         147.371
0.557                   -0.43357        -149.793         -51.5841         -51.658         -51.5823        -51.6766       -0.0123803           147.3
0.558                  -0.442906        -150.454         -51.4529        -52.5612         -51.4509        -52.5796       -0.0124816          147.23
0.559                  -0.452785        -151.122         -51.3188        -53.4684         -51.3165        -53.4863       -0.0125842         147.159
0.56                   -0.463233        -151.797         -51.1817        -54.3808         -51.1791         -54.398       -0.0126883         147.088
0.561                  -0.474278        -152.481         -51.0416        -55.2998         -51.0388        -55.3159       -0.0127938         147.017
0.562                  -0.485951        -153.173         -50.8985        -56.2266         -50.8954        -56.2413       -0.0129007         146.946
0.563                  -0.498285        -153.873         -50.7522        -57.1622          -50.749        -57.1754       -0.0130091         146.874
0.564                  -0.511314        -154.581         -50.6028        -58.1075         -50.5995        -58.1192       -0.0131189         146.803
0.565                  -0.525077        -155.299         -50.4502        -59.0636         -50.4468        -59.0735       -0.0132302         146.731
0.566                  -0.539615        -156.025         -50.2942        -60.0311         -50.2908        -60.0392       -0.0133429          146.66
0.567                  -0.554972        -156.761         -50.1349        -61.0106         -50.1315         -61.017       -0.0134572         146.588
0.568                  -0.571196        -157.507         -49.9722        -62.0027         -49.9689        -62.0075       -0.0135729         146.516
0.569                  -0.588338        -158.262          -49.806        -63.0081         -49.8028        -63.0113       -0.0136901         146.444
0.57                   -0.606454        -159.027         -49.6363         -64.027         -49.6332        -64.0288       -0.0138088         146.371
0.571                  -0.625604        -159.803         -49.4631        -65.0599         -49.4601        -65.0605       -0.0139291         146.299
0.572                  -0.645854        -160.589         -49.2862        -66.1073         -49.2834        -66.1068       -0.0140508         146.226
0.573                  -0.667273        -161.386         -49.1058        -67.1696         -49.1032        -67.1681       -0.0141742         146.154
0.574                  -0.689937        -162.195         -48.9218        -68.2471         -48.9193        -68.2449        -0.014299         146.081
0.575                  -0.713929        -163.015         -48.7342        -69.3405         -48.7319        -69.3377       -0.0144255         146.008
0.576                  -0.739337        -163.847          -48.543        -70.4501         -48.5409        -70.4469       -0.0145536         145.935
0.577                  -0.766259        -164.692         -48.3483        -71.5766         -48.3464         -71.573       -0.0146833         145.862
0.578                  -0.794799        -165.549           -48.15        -72.7205         -48.1483        -72.7167       -0.0148146         145.788
0.579                  -0.825071        -166.419         -47.9483        -73.8825         -47.9467        -73.8786       -0.0149476         145.714
0.58                   -0.857197        -167.302          -47.743        -75.0633         -47.7416        -75.0594       -0.0150823         145.641
0.581                  -0.891311        -168.199         -47.5344        -76.2637         -47.5331        -76.2599       -0.0152187         145.567
0.582                  -0.927559         -169.11         -47.3224        -77.4845         -47.3213        -77.4809       -0.0153569         145.493
0.583                  -0.966099        -170.035          -47.107        -78.7267         -47.1061        -78.7232        -0.015497         145.419
0.584                    -1.0071        -170.975         -46.8884        -79.9912         -46.8876        -79.9879       -0.0156389         145.344
0.585                   -1.05076         -171.93         -46.6667        -81.2791         -46.6659         -81.276       -0.0157827          145.27
0.586                   -1.09726          -172.9         -46.4417        -82.5914         -46.4411        -82.5886       -0.0159285         145.195
0.587                   -1.14684        -173.886         -46.2138        -83.9293         -46.2132        -83.9268       -0.0160764          145.12
0.588                   -1.19974        -174.887         -45.9829        -85.2941         -45.9824        -85.2918       -0.0162264         145.045
0.589                   -1.25621        -175.905         -45.7491         -86.687         -45.7487         -86.685       -0.0163786          144.97
0.59                    -1.31655        -176.938         -45.5126        -88.1093         -45.5122        -88.1076       -0.0165332         144.894
0.591                   -1.38105        -177.987         -45.2734        -89.5625         -45.2731         -89.561       -0.0166902         144.818
0.592                   -1.45007        -179.052         -45.0317         -91.048         -45.0315        -91.0468       -0.0168497         144.743
0.593                   -1.52397         179.867         -44.7877        -92.5674         -44.7875        -92.5664        -0.017012         144.667
0.594                   -1.60314          178.77         -44.5415        -94.1222         -44.5413        -94.1213       -0.0171771          144.59
0.595                   -1.68802         177.659         -44.2933        -95.7139         -44.2931        -95.7133       -0.0173452         144.514
0.596                   -1.77908         176.533         -44.0432        -97.3442         -44.0431        -97.3438       -0.0175165         144.437
0.597                   -1.87684         175.393         -43.7916        -99.0148         -43.7915        -99.0145       -0.0176913         144.361
0.598                   -1.98183         174.241         -43.5387        -100.727         -43.5386        -100.727       -0.0178697         144.284
0.599                   -2.09467         173.079         -43.2847        -102.483         -43.2846        -102.483        -0.018052         144.207
0.6                     -2.21598         171.907         -43.0299        -104.285         -43.0299        -104.285       -0.0182384         144.129
0.601                   -2.34645          170.73         -42.7747        -106.133         -42.7747        -106.133       -0.0184294         144.052
0.602                   -2.48682         169.548         -42.5195        -108.029         -42.5196         -108.03       -0.0186251         143.974
0.603                   -2.63787         168.367         -42.2647        -109.976         -42.2647        -109.976       -0.0188259         143.896
0.604                   -2.80041         167.191         -42.0107        -111.973         -42.0107        -111.974       -0.0190321         143.818
0.605                   -2.97531         166.025         -41.7579        -114.023          -41.758        -114.024       -0.0192443         143.739
0.606                   -3.16345         164.875          -41.507        -116.126          -41.507        -116.127       -0.0194626          143.66
0.607                   -3.36573         163.749         -41.2584        -118.284         -41.2585        -118.284       -0.0196875         143.582
0.608                   -3.58306         162.657         -41.0128        -120.496         -41.0129        -120.496       -0.0199194         143.502
0.609                   -3.81632         161.609         -40.7708        -122.763         -40.7708        -122.763       -0.0201586         143.423
0.61                    -4.06631         160.618         -40.5329        -125.084          -40.533        -125.085       -0.0204055         143.344
0.611                   -4.33376         159.699            -40.3         -127.46         -40.3001         -127.46       -0.0206605         143.264
0.612                   -4.61918         158.869         -40.0728        -129.888         -40.0728        -129.889       -0.0209237         143.184
0.613                   -4.92287         158.148         -39.8518        -132.368         -39.8518        -132.369       -0.0211954         143.104
0.614                   -5.24473          157.56         -39.6378        -134.897         -39.6379        -134.898       -0.0214758         143.023
0.615                   -5.58418         157.131         -39.4316        -137.473         -39.4316        -137.474       -0.0217648         142.943
0.616                   -5.93996         156.889         -39.2337        -140.093         -39.2338        -140.093       -0.0220626         142.862
0.617                   -6.30988         156.866         -39.0449        -142.751         -39.0449        -142.752       -0.0223689         142.781
0.618                   -6.69065         157.096         -38.8657        -145.446         -38.8657        -145.446       -0.0226835           142.7
0.619                   -7.07751         157.613         -38.6966         -148.17         -38.6966         -148.17       -0.0230062         142.618
0.62                    -7.46403         158.447         -38.5381         -150.92         -38.5381         -150.92       -0.0233363         142.537
0.621                   -7.84187         159.625         -38.3905        -153.689         -38.3905        -153.689       -0.0236735         142.455
0.622                   -8.20077         161.163         -38.2541        -156.471         -38.2541        -156.471       -0.0240172         142.373
0.623                   -8.52886         163.059          -38.129         -159.26          -38.129         -159.26       -0.0243666          142.29
0.624                   -8.81332          165.29         -38.0152         -162.05         -38.0152         -162.05       -0.0247211         142.208
0.625                   -9.04163         167.808         -37.9128        -164.835         -37.9128        -164.835       -0.0250801         142.125
0.626                   -9.20313         170.534         -37.8214        -167.607         -37.8214        -167.607       -0.0254427         142.042
0.627                   -9.29074         173.372         -37.7408        -170.362         -37.7408        -170.362       -0.0258083         141.959
0.628                   -9.30212         176.212         -37.6707        -173.094         -37.6707        -173.094       -0.0261764         141.876
0.629                   -9.24013         178.944         -37.6105        -175.796         -37.6105        -175.796       -0.0265463         141.792
0.63                    -9.11215        -178.525         -37.5596        -178.466         -37.5596        -178.466       -0.0269176         141.709
0.631                   -8.92875        -176.268         -37.5176         178.902         -37.5175         178.902       -0.0272899         141.624
0.632                   -8.70203         -174.33         -37.4836         176.312         -37.4836         176.312       -0.0276629          141.54
0.633                   -8.44406         -172.73         -37.4571         173.765          -37.457         173.766       -0.0280364         141.456
0.634                   -8.16587        -171.468         -37.4372         171.266         -37.4372         171.266       -0.0284103         141.371
0.635                   -7.87683         -170.53         -37.4233         168.815         -37.4233         168.815       -0.0287845         141.286
0.636                   -7.58447        -169.892         -37.4147         166.415         -37.4146         166.415       -0.0291592           141.2
0.637                   -7.29457        -169.526         -37.4106         164.065         -37.4105         164.065       -0.0295343         141.114
0.638                   -7.01135        -169.403         -37.4103         161.767         -37.4103         161.767       -0.0299101         141.029
0.639                    -6.7378        -169.493         -37.4132          159.52         -37.4132         159.521       -0.0302868         140.942
0.64                    -6.47587         -169.77         -37.4187         157.325         -37.4186         157.325       -0.0306645         140.856
0.641                   -6.22676        -170.208         -37.4261          155.18          -37.426          155.18       -0.0310437         140.769
0.642                   -5.99108        -170.787         -37.4348         153.085         -37.4348         153.085       -0.0314246         140.681
0.643                   -5.76903        -171.487         -37.4445         151.038         -37.4445         151.038       -0.0318075         140.594
0.644                   -5.56053        -172.291         -37.4545         149.038         -37.4545         149.038       -0.0321928         140.506
0.645                   -5.36526        -173.185         -37.4645         147.084         -37.4645         147.084       -0.0325808         140.418
0.646                   -5.18279        -174.158          -37.474         145.173          -37.474         145.174       -0.0329718         140.329
0.647                   -5.01259        -175.198         -37.4826         143.305         -37.4826         143.305       -0.0333662          140.24
0.648                   -4.85411        -176.297         -37.4901         141.477         -37.4901         141.478       -0.0337644         140.151
0.649                   -4.70675        -177.448          -37.496         139.688          -37.496         139.688       -0.0341666         140.061
0.65                    -4.56991        -178.643         -37.5002         137.936         -37.5002         137.936       -0.0345732         139.971
0.651                   -4.44303        -179.879         -37.5024         136.218         -37.5024         136.218       -0.0349845         139.881
0.652                   -4.32554         178.849         -37.5024         134.534         -37.5024         134.534       -0.0354009          139.79
0.653                   -4.21691         177.546         -37.4999          132.88         -37.4999          132.88       -0.0358226         139.699
0.654                   -4.11663         176.213         -37.4948         131.256         -37.4949         131.256         -0.03625         139.607
0.655                   -4.02424         174.854          -37.487         129.659         -37.4871          129.66       -0.0366834         139.515
0.656                    -3.9393          173.47         -37.4763         128.089         -37.4764         128.089       -0.0371231         139.423
0.657                   -3.86141         172.063         -37.4627         126.542         -37.4627         126.542       -0.0375694          139.33
0.658                   -3.79018         170.635         -37.4459         125.017         -37.4459         125.017       -0.0380225         139.237
0.659                   -3.72527         169.185         -37.4259         123.513         -37.4259         123.513       -0.0384828         139.144
0.66                    -3.66637         167.716         -37.4026         122.028         -37.4027         122.028       -0.0389506          139.05
0.661                    -3.6132         166.226         -37.3761         120.561         -37.3761         120.561        -0.039426         138.955
0.662                   -3.56548         164.718         -37.3462         119.109         -37.3462         119.109       -0.0399096          138.86
0.663                     -3.523          163.19         -37.3128         117.672         -37.3128         117.672       -0.0404014         138.765
0.664                   -3.48552         161.643          -37.276         116.247          -37.276         116.248       -0.0409018         138.669
0.665                   -3.45287         160.077         -37.2358         114.834         -37.2358         114.835       -0.0414111         138.573
0.666                   -3.42488         158.491          -37.192         113.431         -37.1921         113.432       -0.0419295         138.476
0.667                    -3.4014         156.885         -37.1448         112.037         -37.1449         112.037       -0.0424575         138.379
0.668                   -3.38229         155.258         -37.0941          110.65         -37.0942          110.65       -0.0429952         138.282
0.669                   -3.36744          153.61           -37.04         109.269           -37.04         109.269        -0.043543         138.183
0.67                    -3.35677          151.94         -36.9823         107.892         -36.9823         107.892       -0.0441011         138.085
0.671                   -3.35018         150.249         -36.9212         106.519         -36.9212         106.519       -0.0446699         137.986
0.672                   -3.34762         148.533         -36.8567         105.148         -36.8567         105.148       -0.0452497         137.886
0.673                   -3.34903         146.794         -36.7888         103.777         -36.7889         103.777       -0.0458408         137.786
0.674                   -3.35438          145.03         -36.7176         102.407         -36.7176         102.407       -0.0464436         137.685
0.675                   -3.36364          143.24         -36.6431         101.034         -36.6431         101.034       -0.0470583         137.584
0.676                    -3.3768         141.423         -36.5653         99.6592         -36.5653          99.659       -0.0476853         137.482
0.677                   -3.39387         139.578         -36.4843           98.28         -36.4843         98.2798        -0.048325          137.38
0.678                   -3.41485         137.704         -36.4001         96.8958         -36.4002         96.8955       -0.0489777         137.277
0.679                   -3.43976           135.8          -36.313         95.5052          -36.313         95.5049       -0.0496438         137.174
0.68                    -3.46866         133.864         -36.2228         94.1073         -36.2228         94.1069       -0.0503236          137.07
0.681                   -3.50157         131.895         -36.1297         92.7008         -36.1298         92.7004       -0.0510175         136.966
0.682                   -3.53856         129.893         -36.0338         91.2847         -36.0339         91.2843        -0.051726          136.86
0.683                   -3.57968         127.854         -35.9353         89.8578         -35.9353         89.8575       -0.0524494         136.755
0.684                   -3.62502         125.779         -35.8341         88.4193         -35.8341         88.4189       -0.0531881         136.648
0.685                   -3.67466         123.665         -35.7304         86.9679         -35.7304         86.9675       -0.0539425         136.541
0.686                   -3.72869         121.512         -35.6243         85.5027         -35.6244         85.5022       -0.0547132         136.434
0.687                    -3.7872         119.316         -35.5161         84.0227         -35.5161         84.0222       -0.0555004         136.326
0.688                    -3.8503         117.077         -35.4057         82.5269         -35.4057         82.5264       -0.0563048         136.217
0.689                   -3.91811         114.792         -35.2934         81.0144         -35.2934          81.014       -0.0571267         136.107
0.69                    -3.99074          112.46         -35.1793         79.4844         -35.1794         79.4839       -0.0579666         135.997
0.691                   -4.06831          110.08         -35.0636          77.936         -35.0637         77.9355        -0.058825         135.886
0.692                   -4.15095         107.648         -34.9465         76.3683         -34.9466         76.3679       -0.0597025         135.775
0.693                   -4.23878         105.162         -34.8282         74.7808         -34.8282         74.7803       -0.0605995         135.662
0.694                   -4.33193         102.621         -34.7088         73.1726         -34.7088         73.1721       -0.0615165         135.549
0.695                   -4.43053         100.023         -34.5886         71.5432         -34.5886         71.5428       -0.0624542         135.436
0.696                   -4.53468         97.3638         -34.4677         69.8921         -34.4678         69.8917       -0.0634131         135.321