! TOUCHSTONE file generated by CST MICROWAVE STUDIO
! Date and time: Mon Nov 30 09:09:06 2020
! Project name: Scenario_1_Planar_Body_Tissue_Out_of_Line_v2.cst
! Parameters = {dy1=51.9; L_HA=400; Ltissue=700; MT=2.54; Rad_Dielectric=30; Rad_Lower=7.3; Rad_Upper=30; Wtissue=700; a_HA=580; a_WG=246; b_HA=500; b_WG=121; c_HA=0; c_WG=187; d_feed=85; dx1=346; h_feed=15; h_lower=18; h_upper=40; hfat=3; hgap=25; hmuscle=50; hskin=1.5}
! Header version: 2018
! Port assignment regex: !\s*Touchstone port\s*([0-9]+)\s*=\s*(CST MWS port|CST DS port)\s*([0-9]+|Zmin|Zmax)\s*\(\"(.*)\"\)(\s*mode\s*([0-9]+))?.*
! Touchstone port assignment:
! Touchstone port 1 = CST MWS port 1 ("")
! Touchstone port 2 = CST MWS port 2 ("")
# GHz S DB R 50
0.5                    -0.292524        -121.754         -55.2071         34.2454         -55.2072         34.2454      -0.00802905         151.157
0.501                  -0.293128        -122.124         -55.1424         31.9148         -55.1425         31.9147      -0.00809744         151.092
0.502                  -0.293781        -122.497         -55.0801         29.5951         -55.0803          29.595      -0.00816586         151.027
0.503                  -0.294486        -122.872         -55.0202          27.288         -55.0205         27.2879       -0.0082343         150.962
0.504                  -0.295242        -123.251         -54.9627         24.9954          -54.963         24.9953      -0.00830278         150.897
0.505                  -0.296049        -123.633         -54.9073         22.7188         -54.9077         22.7188      -0.00837131         150.831
0.506                  -0.296909        -124.017          -54.854         20.4599         -54.8544         20.4599      -0.00843991         150.766
0.507                  -0.297823        -124.405         -54.8027           18.22         -54.8031         18.2201      -0.00850858         150.701
0.508                   -0.29879        -124.796         -54.7532         16.0007         -54.7537         16.0008      -0.00857734         150.635
0.509                  -0.299813         -125.19         -54.7053         13.8031         -54.7058         13.8033       -0.0086462         150.569
0.51                   -0.300891        -125.587          -54.659         11.6285         -54.6595         11.6287      -0.00871517         150.504
0.511                  -0.302026        -125.988          -54.614         9.47789         -54.6145         9.47819      -0.00878427         150.438
0.512                  -0.303219        -126.391         -54.5702         7.35225         -54.5707         7.35261       -0.0088535         150.372
0.513                  -0.304471        -126.798         -54.5274         5.25245         -54.5279         5.25288      -0.00892288         150.306
0.514                  -0.305783        -127.209         -54.4855         3.17926          -54.486         3.17974      -0.00899242          150.24
0.515                  -0.307157        -127.623         -54.4443         1.13334         -54.4448         1.13386      -0.00906214         150.174
0.516                  -0.308594         -128.04         -54.4037       -0.884751         -54.4041       -0.884194      -0.00913205         150.108
0.517                  -0.310096        -128.461         -54.3634        -2.87454         -54.3638        -2.87395      -0.00920217         150.041
0.518                  -0.311664        -128.886         -54.3234        -4.83565         -54.3238        -4.83504       -0.0092725         149.975
0.519                    -0.3133        -129.314         -54.2834        -6.76777         -54.2837        -6.76716      -0.00934306         149.909
0.52                   -0.315006        -129.746         -54.2434         -8.6707         -54.2437        -8.67009      -0.00941387         149.842
0.521                  -0.316785        -130.182         -54.2031        -10.5443         -54.2034        -10.5437      -0.00948495         149.775
0.522                  -0.318638        -130.622         -54.1625        -12.3885         -54.1627        -12.3879       -0.0095563         149.709
0.523                  -0.320568        -131.065         -54.1214        -14.2032         -54.1215        -14.2027      -0.00962794         149.642
0.524                  -0.322577        -131.513         -54.0796        -15.9887         -54.0797        -15.9882      -0.00969989         149.575
0.525                  -0.324668        -131.965         -54.0371        -17.7448         -54.0371        -17.7444      -0.00977217         149.508
0.526                  -0.326844         -132.42         -53.9937        -19.4719         -53.9937        -19.4716      -0.00984479         149.441
0.527                  -0.329109         -132.88         -53.9493        -21.1702         -53.9493        -21.1699      -0.00991777         149.374
0.528                  -0.331464        -133.344         -53.9038        -22.8398         -53.9037        -22.8396      -0.00999112         149.306
0.529                  -0.333915        -133.813         -53.8571        -24.4812          -53.857        -24.4811       -0.0100649         149.239
0.53                   -0.336464        -134.285         -53.8091        -26.0945         -53.8089        -26.0945        -0.010139         149.171
0.531                  -0.339116        -134.763         -53.7597        -27.6802         -53.7594        -27.6804       -0.0102136         149.104
0.532                  -0.341875        -135.244         -53.7088        -29.2387         -53.7084         -29.239       -0.0102887         149.036
0.533                  -0.344745        -135.731         -53.6563        -30.7704         -53.6559        -30.7708       -0.0103642         148.968
0.534                  -0.347732        -136.222         -53.6021        -32.2757         -53.6017        -32.2763       -0.0104402           148.9
0.535                  -0.350841        -136.718         -53.5462        -33.7551         -53.5457        -33.7558       -0.0105167         148.832
0.536                  -0.354077        -137.219         -53.4885        -35.2091         -53.4879          -35.21       -0.0105937         148.764
0.537                  -0.357445        -137.725         -53.4288        -36.6381         -53.4282        -36.6391       -0.0106713         148.696
0.538                  -0.360953        -138.236         -53.3672        -38.0427         -53.3665        -38.0439       -0.0107495         148.628
0.539                  -0.364608        -138.753         -53.3036        -39.4233         -53.3029        -39.4247       -0.0108282         148.559
0.54                   -0.368415        -139.274         -53.2379        -40.7806         -53.2371        -40.7822       -0.0109076         148.491
0.541                  -0.372384        -139.801           -53.17         -42.115         -53.1691        -42.1168       -0.0109876         148.422
0.542                  -0.376521        -140.334         -53.0998        -43.4271          -53.099        -43.4291       -0.0110683         148.354
0.543                  -0.380836        -140.872         -53.0275        -44.7175         -53.0265        -44.7197       -0.0111496         148.285
0.544                  -0.385338        -141.416         -52.9527        -45.9868         -52.9518        -45.9892       -0.0112317         148.216
0.545                  -0.390038        -141.966         -52.8756        -47.2354         -52.8746         -47.238       -0.0113145         148.147
0.546                  -0.394944        -142.523          -52.796         -48.464          -52.795        -48.4668       -0.0113981         148.077
0.547                   -0.40007        -143.085          -52.714        -49.6732         -52.7129        -49.6762       -0.0114824         148.008
0.548                  -0.405427        -143.653         -52.6294        -50.8635         -52.6283        -50.8667       -0.0115676         147.939
0.549                  -0.411027        -144.228         -52.5421        -52.0356          -52.541        -52.0391       -0.0116536         147.869
0.55                   -0.416885         -144.81         -52.4523        -53.1901         -52.4511        -53.1937       -0.0117406           147.8
0.551                  -0.423016        -145.399         -52.3597        -54.3276         -52.3585        -54.3314       -0.0118284          147.73
0.552                  -0.429435        -145.994         -52.2644        -55.4486         -52.2632        -55.4527       -0.0119171          147.66
0.553                   -0.43616        -146.597         -52.1662         -56.554          -52.165        -56.5582       -0.0120068          147.59
0.554                  -0.443208        -147.206         -52.0652        -57.6442          -52.064        -57.6486       -0.0120976          147.52
0.555                  -0.450598        -147.824         -51.9613        -58.7199         -51.9601        -58.7245       -0.0121893         147.449
0.556                  -0.458353        -148.449         -51.8545        -59.7818         -51.8532        -59.7866       -0.0122822         147.379
0.557                  -0.466493        -149.082         -51.7446        -60.8306         -51.7433        -60.8356       -0.0123761         147.309
0.558                  -0.475044        -149.722         -51.6316        -61.8669         -51.6304        -61.8721       -0.0124712         147.238
0.559                  -0.484031        -150.372         -51.5156        -62.8914         -51.5143        -62.8968       -0.0125675         147.167
0.56                   -0.493481        -151.029         -51.3963        -63.9049         -51.3951        -63.9105        -0.012665         147.096
0.561                  -0.503424        -151.696         -51.2739        -64.9081         -51.2726        -64.9138       -0.0127638         147.025
0.562                  -0.513893        -152.371         -51.1481        -65.9016         -51.1469        -65.9075       -0.0128638         146.954
0.563                  -0.524921        -153.056          -51.019        -66.8864         -51.0178        -66.8924       -0.0129653         146.883
0.564                  -0.536547         -153.75         -50.8865        -67.8631         -50.8853        -67.8693       -0.0130681         146.811
0.565                  -0.548809        -154.454         -50.7506        -68.8326         -50.7494         -68.839       -0.0131723          146.74
0.566                  -0.561751        -155.168         -50.6112        -69.7957           -50.61        -69.8022       -0.0132781         146.668
0.567                  -0.575419        -155.892         -50.4681        -70.7533          -50.467        -70.7598       -0.0133854         146.596
0.568                  -0.589864        -156.627         -50.3215        -71.7062         -50.3204        -71.7128       -0.0134942         146.524
0.569                   -0.60514        -157.373         -50.1712        -72.6553         -50.1701        -72.6621       -0.0136048         146.452
0.57                   -0.621305         -158.13         -50.0171        -73.6017          -50.016        -73.6085        -0.013717          146.38
0.571                  -0.638422        -158.898         -49.8592        -74.5462         -49.8582        -74.5531        -0.013831         146.307
0.572                  -0.656561        -159.679         -49.6975        -75.4899         -49.6965        -75.4969       -0.0139468         146.235
0.573                  -0.675794        -160.471         -49.5319        -76.4339         -49.5309        -76.4409       -0.0140645         146.162
0.574                  -0.696204        -161.276         -49.3623        -77.3792         -49.3613        -77.3863       -0.0141841         146.089
0.575                  -0.717876        -162.095         -49.1886         -78.327         -49.1877        -78.3341       -0.0143057         146.016
0.576                  -0.740905        -162.926         -49.0109        -79.2786           -49.01        -79.2856       -0.0144294         145.943
0.577                  -0.765394        -163.771         -48.8291         -80.235         -48.8282        -80.2421       -0.0145553         145.869
0.578                  -0.791454        -164.631          -48.643        -81.1977         -48.6422        -81.2048       -0.0146834         145.796
0.579                  -0.819206        -165.505         -48.4528         -82.168          -48.452         -82.175       -0.0148138         145.722
0.58                   -0.848782        -166.394         -48.2583        -83.1474         -48.2575        -83.1543       -0.0149466         145.648
0.581                  -0.880326        -167.298         -48.0594        -84.1372         -48.0587        -84.1441       -0.0150819         145.574
0.582                  -0.913992        -168.218         -47.8562        -85.1391         -47.8555        -85.1459       -0.0152197           145.5
0.583                  -0.949951        -169.154         -47.6486        -86.1547          -47.648        -86.1613       -0.0153602         145.426
0.584                  -0.988387        -170.106         -47.4367        -87.1857         -47.4361        -87.1922       -0.0155034         145.351
0.585                    -1.0295        -171.075         -47.2203        -88.2338         -47.2198        -88.2402       -0.0156495         145.277
0.586                   -1.07351        -172.062         -46.9995         -89.301          -46.999        -89.3072       -0.0157985         145.202
0.587                   -1.12066        -173.066         -46.7743        -90.3892         -46.7738        -90.3953       -0.0159506         145.127
0.588                   -1.17121        -174.087         -46.5447        -91.5005         -46.5443        -91.5063       -0.0161058         145.052
0.589                   -1.22544        -175.127         -46.3107        -92.6369         -46.3104        -92.6425       -0.0162642         144.976
0.59                    -1.28366        -176.184         -46.0725        -93.8008         -46.0722        -93.8062       -0.0164261         144.901
0.591                   -1.34621         -177.26           -45.83        -94.9944         -45.8297        -94.9995       -0.0165915         144.825
0.592                   -1.41345        -178.354         -45.5833        -96.2201         -45.5831         -96.225       -0.0167604         144.749
0.593                   -1.48579        -179.466         -45.3326        -97.4806         -45.3324        -97.4852       -0.0169332         144.673
0.594                   -1.56366         179.404          -45.078        -98.7783         -45.0778        -98.7827       -0.0171098         144.597
0.595                   -1.64752         178.258         -44.8196        -100.116         -44.8194         -100.12       -0.0172904          144.52
0.596                    -1.7379         177.095         -44.5577        -101.497         -44.5576          -101.5       -0.0174752         144.444
0.597                   -1.83534         175.916         -44.2924        -102.923         -44.2923        -102.926       -0.0176643         144.367
0.598                   -1.94044         174.724         -44.0242        -104.398         -44.0241        -104.401       -0.0178578          144.29
0.599                   -2.05384         173.519         -43.7532        -105.924         -43.7531        -105.926       -0.0180559         144.212
0.6                     -2.17623         172.305         -43.4799        -107.504         -43.4798        -107.507       -0.0182587         144.135
0.601                   -2.30835         171.083         -43.2046        -109.142         -43.2046        -109.144       -0.0184663         144.057
0.602                   -2.45097         169.856          -42.928         -110.84          -42.928        -110.842        -0.018679          143.98
0.603                   -2.60492          168.63         -42.6504        -112.602         -42.6504        -112.603       -0.0188968         143.902
0.604                   -2.77106         167.409         -42.3726        -114.428         -42.3726        -114.429       -0.0191199         143.823
0.605                   -2.95028         166.199         -42.0951        -116.323         -42.0952        -116.324       -0.0193484         143.745
0.606                   -3.14349         165.008         -41.8189        -118.288         -41.8189        -118.288       -0.0195824         143.666
0.607                   -3.35161         163.843         -41.5446        -120.325         -41.5446        -120.325       -0.0198221         143.587
0.608                   -3.57552         162.715         -41.2732        -122.435         -41.2731        -122.435       -0.0200676         143.508
0.609                   -3.81606         161.637         -41.0055        -124.619         -41.0055        -124.618       -0.0203189         143.429
0.61                    -4.07398          160.62         -40.7428        -126.877         -40.7427        -126.876       -0.0205763          143.35
0.611                   -4.34987         159.683         -40.4859        -129.208         -40.4858        -129.207       -0.0208396          143.27
0.612                   -4.64411         158.844         -40.2359        -131.612         -40.2358         -131.61       -0.0211091          143.19
0.613                   -4.95676         158.123         -39.9941        -134.084          -39.994        -134.082       -0.0213847          143.11
0.614                   -5.28744         157.546         -39.7614        -136.623         -39.7612        -136.621       -0.0216665          143.03
0.615                   -5.63521         157.138         -39.5389        -139.223         -39.5388        -139.221       -0.0219544         142.949
0.616                   -5.99836         156.929         -39.3277        -141.879         -39.3275        -141.877       -0.0222485         142.868
0.617                    -6.3742          156.95         -39.1287        -144.586         -39.1284        -144.584       -0.0225487         142.787
0.618                   -6.75884         157.234         -38.9426        -147.334         -38.9423        -147.332       -0.0228549         142.706
0.619                   -7.14695         157.811         -38.7701        -150.117         -38.7698        -150.115        -0.023167         142.625
0.62                    -7.53152         158.709         -38.6117        -152.926         -38.6114        -152.924       -0.0234849         142.543
0.621                   -7.90382         159.947         -38.4678        -155.751         -38.4675        -155.749       -0.0238084         142.461
0.622                   -8.25348         161.534         -38.3384        -158.582         -38.3381        -158.581       -0.0241373         142.379
0.623                   -8.56892         163.458         -38.2235        -161.411         -38.2232         -161.41       -0.0244715         142.297
0.624                   -8.83821         165.689         -38.1228        -164.229         -38.1225        -164.227       -0.0248107         142.214
0.625                   -9.05029         168.169         -38.0358        -167.025         -38.0355        -167.024       -0.0251546         142.132
0.626                   -9.19643         170.821          -37.962        -169.793         -37.9617        -169.792        -0.025503         142.049
0.627                   -9.27156         173.548         -37.9006        -172.524         -37.9003        -172.523       -0.0258555         141.966
0.628                   -9.27514         176.249         -37.8506        -175.212         -37.8504        -175.212       -0.0262119         141.882
0.629                   -9.21111         178.827         -37.8112        -177.853          -37.811        -177.852       -0.0265719         141.798
0.63                    -9.08716          -178.8         -37.7814          179.56         -37.7812          179.56       -0.0269352         141.714
0.631                   -8.91341        -176.692         -37.7599         177.029         -37.7598         177.029       -0.0273014          141.63
0.632                   -8.70095        -174.882         -37.7459         174.557         -37.7458         174.557       -0.0276703         141.546
0.633                   -8.46061        -173.388         -37.7382         172.146         -37.7381         172.146       -0.0280417         141.461
0.634                   -8.20217        -172.205         -37.7358         169.796         -37.7358         169.796       -0.0284152         141.376
0.635                   -7.93388        -171.321         -37.7378         167.507         -37.7378         167.508       -0.0287906         141.291
0.636                    -7.6624        -170.712         -37.7432          165.28         -37.7433          165.28       -0.0291678         141.205
0.637                   -7.39282        -170.354         -37.7512         163.112         -37.7513         163.112       -0.0295467         141.119
0.638                   -7.12892         -170.22         -37.7609         161.003         -37.7611         161.003        -0.029927         141.033
0.639                   -6.87337        -170.285         -37.7717          158.95         -37.7719          158.95       -0.0303088         140.947
0.64                    -6.62796        -170.524         -37.7829         156.951         -37.7831         156.951       -0.0306921          140.86
0.641                   -6.39381        -170.915         -37.7939         155.003         -37.7942         155.004       -0.0310767         140.773
0.642                   -6.17153        -171.438         -37.8042         153.105         -37.8045         153.106       -0.0314629         140.686
0.643                   -5.96135        -172.078         -37.8134         151.254         -37.8137         151.255       -0.0318507         140.598
0.644                   -5.76323        -172.818         -37.8209         149.446         -37.8212         149.447       -0.0322403          140.51
0.645                   -5.57697        -173.645         -37.8265         147.679         -37.8269         147.681       -0.0326318         140.422
0.646                    -5.4022        -174.549           -37.83         145.951         -37.8303         145.952       -0.0330255         140.333
0.647                    -5.2385         -175.52         -37.8309         144.258         -37.8313          144.26       -0.0334217         140.244
0.648                   -5.08539        -176.549         -37.8291         142.598         -37.8295           142.6       -0.0338205         140.155
0.649                   -4.94238        -177.631         -37.8245         140.969         -37.8249         140.971       -0.0342223         140.065
0.65                    -4.80897        -178.759         -37.8168         139.368         -37.8172          139.37       -0.0346275         139.975
0.651                   -4.68464        -179.928         -37.8059         137.792         -37.8064         137.794       -0.0350363         139.885
0.652                   -4.56892         178.866         -37.7918         136.239         -37.7923         136.242       -0.0354492         139.794
0.653                   -4.46135         177.625         -37.7744         134.708         -37.7748         134.711       -0.0358665         139.703
0.654                   -4.36149         176.354         -37.7536         133.195          -37.754         133.198       -0.0362886         139.611
0.655                   -4.26892         175.055         -37.7294         131.699         -37.7298         131.703       -0.0367159         139.519
0.656                   -4.18326         173.728         -37.7017         130.219         -37.7022         130.222       -0.0371487         139.426
0.657                   -4.10416         172.377         -37.6706         128.751         -37.6711         128.754       -0.0375875         139.334
0.658                   -4.03128         171.002         -37.6361         127.294         -37.6366         127.298       -0.0380326          139.24
0.659                   -3.96431         169.603         -37.5982         125.847         -37.5986         125.851       -0.0384844         139.147
0.66                    -3.90299         168.183         -37.5569         124.408         -37.5573         124.412       -0.0389434         139.052
0.661                   -3.84705         166.741         -37.5122         122.976         -37.5126          122.98       -0.0394099         138.958
0.662                   -3.79627         165.277         -37.4642         121.548         -37.4647         121.552       -0.0398842         138.863
0.663                   -3.75043         163.793          -37.413         120.124         -37.4134         120.128       -0.0403669         138.767
0.664                   -3.70935         162.287         -37.3586         118.702          -37.359         118.706       -0.0408581         138.671
0.665                   -3.67287         160.759         -37.3011         117.281         -37.3015         117.286       -0.0413584         138.575
0.666                   -3.64082         159.211         -37.2405          115.86         -37.2409         115.864       -0.0418681         138.478
0.667                   -3.61309          157.64         -37.1769         114.437         -37.1773         114.441       -0.0423875         138.381
0.668                   -3.58955         156.047         -37.1104         113.011         -37.1108         113.016        -0.042917         138.283
0.669                   -3.57011          154.43         -37.0411         111.582         -37.0414         111.587        -0.043457         138.185
0.67                    -3.55469         152.791          -36.969         110.148         -36.9693         110.153       -0.0440078         138.086
0.671                   -3.54322         151.127         -36.8943         108.709         -36.8946         108.714       -0.0445698         137.986
0.672                   -3.53565         149.439          -36.817         107.263         -36.8173         107.268       -0.0451433         137.887
0.673                   -3.53194         147.725         -36.7373         105.809         -36.7376         105.814       -0.0457287         137.786
0.674                   -3.53206         145.984         -36.6552         104.348         -36.6555         104.352       -0.0463263         137.685
0.675                     -3.536         144.216         -36.5709         102.876         -36.5711         102.881       -0.0469365         137.584
0.676                   -3.54375         142.419         -36.4844         101.396         -36.4846           101.4       -0.0475597         137.482
0.677                   -3.55534         140.593         -36.3959          99.904         -36.3961         99.9087       -0.0481961         137.379
0.678                   -3.57077         138.736         -36.3055         98.4011         -36.3057         98.4057       -0.0488463         137.276
0.679                   -3.59008         136.847         -36.2132         96.8863         -36.2134         96.8908       -0.0495105         137.173
0.68                    -3.61331         134.925         -36.1193         95.3588         -36.1195         95.3633       -0.0501891         137.068
0.681                   -3.64053         132.969         -36.0239         93.8182          -36.024         93.8226       -0.0508824         136.964
0.682                   -3.67179         130.977          -35.927          92.264         -35.9271         92.2683        -0.051591         136.858
0.683                   -3.70717         128.948         -35.8288         90.6956         -35.8289         90.6998       -0.0523151         136.752
0.684                   -3.74675         126.881         -35.7295         89.1126         -35.7296         89.1167       -0.0530551         136.646
0.685                   -3.79063         124.774         -35.6291         87.5146         -35.6292         87.5186       -0.0538116         136.538
0.686                   -3.83891         122.625         -35.5279         85.9013          -35.528         85.9051       -0.0545847          136.43
0.687                   -3.89169         120.432         -35.4259         84.2724          -35.426         84.2761       -0.0553751         136.322
0.688                   -3.94911         118.195         -35.3233         82.6275         -35.3234         82.6311       -0.0561831         136.213
0.689                   -4.01127          115.91         -35.2203         80.9666         -35.2204           80.97       -0.0570091         136.103
0.69                    -4.07833         113.577          -35.117         79.2895         -35.1171         79.2927       -0.0578536         135.992
0.691                    -4.1504         111.193         -35.0136         77.5961         -35.0136         77.5992       -0.0587171         135.881
0.692                   -4.22764         108.756         -34.9102         75.8863         -34.9102         75.8892       -0.0596001         135.769
0.693                   -4.31019         106.264          -34.807         74.1603          -34.807          74.163       -0.0605029         135.656
0.694                   -4.39818         103.715         -34.7041          72.418         -34.7041         72.4206       -0.0614262         135.543
0.695                   -4.49178         101.107         -34.6016         70.6598         -34.6017         70.6622       -0.0623704         135.429
0.696                   -4.59111         98.4362         -34.4999         68.8857         -34.4999         68.8879       -0.0633361         135.314