! TOUCHSTONE file generated by CST MICROWAVE STUDIO
! Date and time: Tue Nov 24 13:44:11 2020
! Project name: Scenario_1_Planar_Body_Tissue_Out_of_Line.cst
! Parameters = {dy1=51.9; L_HA=400; Ltissue=700; MT=2.54; Rad_Dielectric=30; Rad_Lower=7.3; Rad_Upper=30; Wtissue=700; a_HA=580; a_WG=246; b_HA=500; b_WG=121; c_HA=0; c_WG=187; d_feed=85; dx1=1039; h_feed=15; h_lower=18; h_upper=40; hfat=3; hgap=25; hmuscle=50; hskin=1.5}
! Header version: 2018
! Port assignment regex: !\s*Touchstone port\s*([0-9]+)\s*=\s*(CST MWS port|CST DS port)\s*([0-9]+|Zmin|Zmax)\s*\(\"(.*)\"\)(\s*mode\s*([0-9]+))?.*
! Touchstone port assignment:
! Touchstone port 1 = CST MWS port 1 ("")
! Touchstone port 2 = CST MWS port 2 ("")
# GHz S DB R 50
0.5                    -0.162876        -121.573         -63.3255        -16.2117         -63.3253        -16.2102      -0.00764082         151.144
0.501                  -0.163823        -122.002         -63.1091         -17.248         -63.1061        -17.2752      -0.00770358         151.078
0.502                  -0.164855        -122.434          -62.877        -18.3294         -62.8713        -18.3915      -0.00776697         151.013
0.503                  -0.165976         -122.87         -62.6272          -19.47          -62.619        -19.5743      -0.00783099         150.948
0.504                  -0.167192        -123.309         -62.3572        -20.6887          -62.347        -20.8444      -0.00789564         150.882
0.505                  -0.168509        -123.751         -62.0647        -22.0126         -62.0534        -22.2303      -0.00796093         150.817
0.506                  -0.169933        -124.197         -61.7471        -23.4788         -61.7362         -23.771      -0.00802685         150.751
0.507                  -0.171472        -124.646         -61.4024        -25.1393         -61.3943        -25.5197      -0.00809342         150.686
0.508                  -0.173131        -125.099           -61.03        -27.0653         -61.0283        -27.5471      -0.00816064          150.62
0.509                   -0.17492        -125.555         -60.6321        -29.3521         -60.6423        -29.9442      -0.00822851         150.554
0.51                   -0.176847        -126.015         -60.2168        -32.1205         -60.2464        -32.8204      -0.00829704         150.488
0.511                  -0.178922        -126.479         -59.8018        -35.5075         -59.8606        -36.2889      -0.00836622         150.422
0.512                  -0.181154        -126.947         -59.4205        -39.6322         -59.5179        -40.4295      -0.00843607         150.356
0.513                  -0.183554        -127.419         -59.1235        -44.5215         -59.2652          -45.22      -0.00850659          150.29
0.514                  -0.186136        -127.895         -58.9719        -50.0013         -59.1528        -50.4541      -0.00857779         150.224
0.515                  -0.188911        -128.376         -59.0131        -55.6292         -59.2137        -55.7149      -0.00864966         150.158
0.516                  -0.191895         -128.86         -59.2487        -60.7902         -59.4408        -60.4818      -0.00872223         150.091
0.517                  -0.195102         -129.35         -59.6249         -64.956         -59.7837        -64.3381      -0.00879549         150.025
0.518                   -0.19855        -129.843         -60.0568         -67.906         -60.1703        -67.1235      -0.00886945         149.958
0.519                  -0.202258        -130.342         -60.4666        -69.7386         -60.5357        -68.9296      -0.00894412         149.892
0.52                   -0.206246        -130.845         -60.8044        -70.7314         -60.8381        -69.9899      -0.00901952         149.825
0.521                  -0.210536        -131.354         -61.0502        -71.1941         -61.0592        -70.5664      -0.00909565         149.758
0.522                  -0.215154        -131.868         -61.2035        -71.3857         -61.1977        -70.8832      -0.00917253         149.691
0.523                  -0.220127        -132.386         -61.2747        -71.4897         -61.2612        -71.1039      -0.00925016         149.624
0.524                  -0.225485        -132.911         -61.2774        -71.6222         -61.2611        -71.3358      -0.00932858         149.557
0.525                  -0.231261        -133.441         -61.2249        -71.8487         -61.2089        -71.6429       -0.0094078          149.49
0.526                  -0.237492        -133.976         -61.1287         -72.202         -61.1146        -72.0592      -0.00948783         149.423
0.527                  -0.244219        -134.518          -60.998        -72.6948         -60.9866        -72.6001      -0.00956872         149.355
0.528                  -0.251486        -135.066           -60.84        -73.3286         -60.8317        -73.2701      -0.00965048         149.288
0.529                  -0.259343         -135.62         -60.6601        -74.0992         -60.6548        -74.0673      -0.00973315          149.22
0.53                   -0.267847         -136.18         -60.4625        -74.9996           -60.46         -74.987      -0.00981678         149.153
0.531                  -0.277058        -136.747         -60.2501        -76.0223         -60.2502        -76.0234       -0.0099014         149.085
0.532                  -0.287044        -137.321         -60.0254          -77.16         -60.0277        -77.1707      -0.00998708         149.017
0.533                  -0.297883        -137.901         -59.7899        -78.4063         -59.7941        -78.4232       -0.0100739         148.949
0.534                  -0.309659        -138.489          -59.545        -79.7557         -59.5509        -79.7764       -0.0101618         148.881
0.535                  -0.322466        -139.084         -59.2917        -81.2038         -59.2989        -81.2264       -0.0102511         148.813
0.536                   -0.33641        -139.686         -59.0308        -82.7471         -59.0391        -82.7703       -0.0103417         148.745
0.537                  -0.351608        -140.295         -58.7628        -84.3832          -58.772        -84.4059       -0.0104338         148.677
0.538                  -0.368189        -140.911         -58.4884        -86.1106         -58.4982         -86.132       -0.0105274         148.608
0.539                  -0.386299        -141.535         -58.2078        -87.9286         -58.2182        -87.9482       -0.0106228          148.54
0.54                   -0.406098        -142.166         -57.9217        -89.8371         -57.9324        -89.8545         -0.01072         148.471
0.541                  -0.427763        -142.804         -57.6303        -91.8369         -57.6412        -91.8518       -0.0108193         148.402
0.542                  -0.451488        -143.448         -57.3341        -93.9293          -57.345        -93.9415       -0.0109207         148.333
0.543                  -0.477486        -144.098         -57.0335        -96.1161         -57.0444        -96.1255       -0.0110246         148.264
0.544                   -0.50599        -144.754         -56.7291        -98.3996         -56.7399        -98.4062        -0.011131         148.195
0.545                  -0.537248        -145.413         -56.4214        -100.783         -56.4319        -100.786       -0.0112402         148.126
0.546                  -0.571524        -146.076         -56.1111        -103.268         -56.1213        -103.269       -0.0113523         148.057
0.547                  -0.609093        -146.739          -55.799        -105.859         -55.8087        -105.857       -0.0114675         147.987
0.548                  -0.650236        -147.402         -55.4858        -108.559         -55.4951        -108.555       -0.0115859         147.918
0.549                  -0.695226        -148.062         -55.1728        -111.371         -55.1815        -111.365       -0.0117076         147.848
0.55                   -0.744316        -148.714         -54.8609        -114.299         -54.8691        -114.291       -0.0118328         147.778
0.551                  -0.797717        -149.356         -54.5516        -117.344         -54.5592        -117.335       -0.0119612         147.708
0.552                  -0.855573        -149.983         -54.2464         -120.51         -54.2533        -120.499       -0.0120929         147.638
0.553                  -0.917923        -150.588         -53.9468        -123.797          -53.953        -123.785       -0.0122277         147.568
0.554                  -0.984658        -151.167         -53.6547        -127.205         -53.6602        -127.193       -0.0123653         147.498
0.555                   -1.05547        -151.712         -53.3721        -130.733         -53.3768         -130.72       -0.0125054         147.428
0.556                   -1.12982        -152.215         -53.1009        -134.377         -53.1049        -134.365       -0.0126476         147.357
0.557                   -1.20683        -152.671         -52.8432        -138.132         -52.8466         -138.12       -0.0127916         147.287
0.558                   -1.28533        -153.071         -52.6012        -141.991         -52.6039         -141.98       -0.0129368         147.216
0.559                   -1.36377        -153.411         -52.3768        -145.943         -52.3788        -145.934       -0.0130829         147.146
0.56                    -1.44029        -153.688         -52.1719        -149.976         -52.1733        -149.969       -0.0132295         147.075
0.561                   -1.51278        -153.901         -51.9881        -154.076          -51.989        -154.071       -0.0133762         147.004
0.562                   -1.57903        -154.053         -51.8266        -158.226         -51.8271        -158.223       -0.0135228         146.933
0.563                    -1.6369        -154.152         -51.6885        -162.408         -51.6886        -162.407       -0.0136691         146.862
0.564                   -1.68451         -154.21          -51.574        -166.602         -51.5739        -166.604       -0.0138149         146.791
0.565                    -1.7205        -154.241         -51.4833         -170.79         -51.4829        -170.794       -0.0139602         146.719
0.566                   -1.74411        -154.262         -51.4157        -174.952         -51.4152        -174.959        -0.014105         146.648
0.567                   -1.75529         -154.29         -51.3704        -179.071         -51.3697         -179.08       -0.0142493         146.576
0.568                   -1.75466        -154.341          -51.346          176.87         -51.3453         176.859       -0.0143932         146.504
0.569                   -1.74341         -154.43         -51.3408         172.886         -51.3401         172.873       -0.0145368         146.432
0.57                    -1.72312        -154.568         -51.3529         168.987         -51.3522         168.972       -0.0146803          146.36
0.571                    -1.6956        -154.761         -51.3803         165.184         -51.3797         165.168       -0.0148238         146.288
0.572                    -1.6627        -155.016         -51.4208         161.483         -51.4203         161.467       -0.0149674         146.216
0.573                   -1.62617        -155.332         -51.4723         157.889         -51.4719         157.873       -0.0151114         146.144
0.574                   -1.58761        -155.709         -51.5327         154.406         -51.5325         154.389       -0.0152558         146.071
0.575                   -1.54836        -156.144         -51.6001         151.032            -51.6         151.015       -0.0154008         145.998
0.576                   -1.50952        -156.634         -51.6726         147.768         -51.6725         147.752       -0.0155465         145.925
0.577                   -1.47197        -157.174         -51.7485         144.612         -51.7485         144.596       -0.0156931         145.852
0.578                   -1.43635        -157.759         -51.8262          141.56         -51.8264         141.544       -0.0158407         145.779
0.579                   -1.40315        -158.386         -51.9045         138.608         -51.9048         138.593       -0.0159895         145.706
0.58                    -1.37269         -159.05         -51.9822         135.752         -51.9825         135.738       -0.0161394         145.632
0.581                    -1.3452        -159.747         -52.0581         132.987         -52.0585         132.974       -0.0162906         145.558
0.582                    -1.3208        -160.475         -52.1314         130.308         -52.1319         130.296       -0.0164433         145.485
0.583                   -1.29955        -161.229         -52.2014          127.71         -52.2018         127.699       -0.0165974         145.411
0.584                   -1.28147        -162.008         -52.2673         125.187         -52.2677         125.177       -0.0167531         145.336
0.585                   -1.26655         -162.81         -52.3285         122.735          -52.329         122.727       -0.0169104         145.262
0.586                   -1.25475        -163.632         -52.3847         120.349         -52.3852         120.342       -0.0170694         145.188
0.587                   -1.24604        -164.473         -52.4355         118.024         -52.4359         118.017       -0.0172302         145.113
0.588                   -1.24037        -165.332         -52.4804         115.755         -52.4808         115.749       -0.0173928         145.038
0.589                   -1.23771        -166.208         -52.5193         113.538         -52.5197         113.533       -0.0175573         144.963
0.59                    -1.23802          -167.1          -52.552         111.368         -52.5523         111.364       -0.0177238         144.888
0.591                   -1.24128        -168.008         -52.5783         109.241         -52.5785         109.238       -0.0178923         144.813
0.592                   -1.24747        -168.932          -52.598         107.154         -52.5981         107.152       -0.0180628         144.737
0.593                    -1.2566        -169.869         -52.6111         105.102         -52.6112         105.101       -0.0182355         144.661
0.594                   -1.26868        -170.822         -52.6175         103.082         -52.6175         103.081       -0.0184103         144.586
0.595                   -1.28374        -171.789         -52.6172         101.091         -52.6171          101.09       -0.0185873          144.51
0.596                   -1.30184        -172.771         -52.6101         99.1239         -52.6099          99.124       -0.0187666         144.433
0.597                   -1.32302        -173.766         -52.5963         97.1791          -52.596         97.1796       -0.0189483         144.357
0.598                   -1.34737        -174.776         -52.5757         95.2528         -52.5754         95.2537       -0.0191324          144.28
0.599                     -1.375        -175.801         -52.5485         93.3422         -52.5481         93.3434       -0.0193189         144.203
0.6                     -1.40601         -176.84         -52.5146         91.4442         -52.5142         91.4456       -0.0195079         144.126
0.601                   -1.44053        -177.893         -52.4742          89.556         -52.4737         89.5576       -0.0196995         144.049
0.602                   -1.47874        -178.961         -52.4273         87.6748         -52.4267         87.6766       -0.0198937         143.972
0.603                   -1.52079         179.957          -52.374         85.7979         -52.3734         85.7997       -0.0200906         143.894
0.604                   -1.56689          178.86         -52.3144         83.9225         -52.3137         83.9244       -0.0202903         143.817
0.605                   -1.61726         177.749         -52.2486         82.0462         -52.2479         82.0481       -0.0204928         143.739
0.606                   -1.67214         176.624         -52.1768         80.1663         -52.1761         80.1681       -0.0206982          143.66
0.607                    -1.7318         175.485         -52.0992         78.2802         -52.0984         78.2819       -0.0209066         143.582
0.608                   -1.79653         174.333         -52.0158         76.3856         -52.0151         76.3872       -0.0211181         143.503
0.609                   -1.86666         173.168          -51.927         74.4799         -51.9262         74.4814       -0.0213327         143.424
0.61                    -1.94252         171.991         -51.8328         72.5608          -51.832         72.5621       -0.0215505         143.345
0.611                   -2.02451         170.804         -51.7335         70.6261         -51.7327         70.6271       -0.0217716         143.266
0.612                     -2.113         169.606         -51.6295         68.6733         -51.6287         68.6742       -0.0219961         143.187
0.613                   -2.20845           168.4         -51.5208         66.7004           -51.52          66.701        -0.022224         143.107
0.614                    -2.3113         167.188         -51.4079         64.7052         -51.4071         64.7056       -0.0224555         143.027
0.615                   -2.42203         165.972          -51.291         62.6857         -51.2902         62.6859       -0.0226907         142.947
0.616                   -2.54115         164.754         -51.1705         60.6401         -51.1698         60.6401       -0.0229295         142.867
0.617                   -2.66918         163.538         -51.0467         58.5665          -51.046         58.5663       -0.0231723         142.786
0.618                   -2.80665         162.327         -50.9201         56.4634         -50.9194          56.463       -0.0234189         142.705
0.619                    -2.9541         161.127          -50.791         54.3294         -50.7904         54.3288       -0.0236696         142.624
0.62                    -3.11207         159.943         -50.6599         52.1631         -50.6593         52.1623       -0.0239244         142.543
0.621                   -3.28106          158.78         -50.5272         49.9636         -50.5267         49.9627       -0.0241833         142.461
0.622                   -3.46155         157.646         -50.3935         47.7301          -50.393         47.7292       -0.0244466         142.379
0.623                   -3.65395         156.549         -50.2591         45.4622         -50.2587         45.4612       -0.0247142         142.297
0.624                   -3.85857         155.498         -50.1247         43.1597         -50.1244         43.1586       -0.0249863         142.215
0.625                   -4.07561         154.505         -49.9907         40.8226         -49.9904         40.8215        -0.025263         142.132
0.626                    -4.3051         153.581         -49.8577         38.4516         -49.8575         38.4505       -0.0255442         142.049
0.627                   -4.54682          152.74         -49.7261         36.0473         -49.7259         36.0463       -0.0258302         141.966
0.628                    -4.8003         151.994         -49.5966         33.6111         -49.5964         33.6102       -0.0261209         141.883
0.629                   -5.06469         151.362         -49.4695         31.1445         -49.4694         31.1437       -0.0264164         141.799
0.63                     -5.3387         150.858         -49.3453         28.6495         -49.3453         28.6488       -0.0267168         141.715
0.631                   -5.62053         150.499         -49.2245         26.1284         -49.2245         26.1279       -0.0270221         141.631
0.632                   -5.90778         150.303         -49.1075         23.5838         -49.1075         23.5834       -0.0273324         141.547
0.633                   -6.19737         150.283         -48.9946         21.0187         -48.9947         21.0185       -0.0276477         141.462
0.634                   -6.48549         150.455         -48.8862         18.4363         -48.8863         18.4363       -0.0279681         141.377
0.635                    -6.7676         150.826         -48.7824           15.84         -48.7825         15.8402       -0.0282935         141.292
0.636                   -7.03851         151.401         -48.6834         13.2334         -48.6835         13.2338       -0.0286241         141.206
0.637                   -7.29254         152.177         -48.5894         10.6203         -48.5895         10.6208       -0.0289599          141.12
0.638                   -7.52376         153.141         -48.5003         8.00426         -48.5004         8.00492       -0.0293009         141.034
0.639                   -7.72639         154.274         -48.4161         5.38913         -48.4163         5.38993       -0.0296471         140.948
0.64                    -7.89523         155.543         -48.3368          2.7785         -48.3369         2.77943       -0.0299986         140.861
0.641                   -8.02616         156.908         -48.2622        0.175865         -48.2623        0.176887       -0.0303554         140.774
0.642                   -8.11656         158.323          -48.192         -2.4155         -48.1921         -2.4144       -0.0307175         140.686
0.643                   -8.16555         159.739         -48.1259        -4.99256          -48.126        -4.99141       -0.0310851         140.599
0.644                   -8.17409         161.106         -48.0637        -7.55258         -48.0638        -7.55139       -0.0314582         140.511
0.645                   -8.14483         162.379          -48.005        -10.0931          -48.005        -10.0919       -0.0318368         140.422
0.646                   -8.08177          163.52         -47.9493        -12.6121         -47.9493        -12.6109        -0.032221         140.334
0.647                   -7.98983         164.498         -47.8962        -15.1078         -47.8963        -15.1066       -0.0326109         140.245
0.648                   -7.87436         165.296         -47.8454        -17.5788         -47.8454        -17.5777       -0.0330065         140.155
0.649                   -7.74078         165.899         -47.7963        -20.0242         -47.7963        -20.0231       -0.0334081         140.065
0.65                    -7.59421         166.306         -47.7485        -22.4432         -47.7485        -22.4422       -0.0338156         139.975
0.651                    -7.4393         166.518         -47.7015        -24.8356         -47.7015        -24.8347       -0.0342292         139.885
0.652                   -7.28006         166.541          -47.655        -27.2013          -47.655        -27.2005       -0.0346491         139.794
0.653                   -7.11991         166.387         -47.6084        -29.5406         -47.6084        -29.5399       -0.0350753         139.703
0.654                   -6.96162         166.065         -47.5614        -31.8541         -47.5614        -31.8534        -0.035508         139.611
0.655                   -6.80742         165.588         -47.5136        -34.1425         -47.5136        -34.1419       -0.0359474         139.519
0.656                   -6.65904         164.969         -47.4646        -36.4069         -47.4646        -36.4064       -0.0363935         139.427
0.657                   -6.51779         164.219         -47.4141        -38.6484         -47.4141         -38.648       -0.0368466         139.334
0.658                   -6.38465          163.35         -47.3618        -40.8684         -47.3618         -40.868       -0.0373069         139.241
0.659                   -6.26031         162.372         -47.3073        -43.0684         -47.3073        -43.0681       -0.0377745         139.148
0.66                    -6.14527         161.294         -47.2505        -45.2501         -47.2505        -45.2498       -0.0382496         139.054
0.661                   -6.03985         160.124         -47.1911         -47.415         -47.1911        -47.4148       -0.0387324          138.96
0.662                   -5.94425          158.87         -47.1288        -49.5652         -47.1289        -49.5649       -0.0392232         138.865
0.663                   -5.85858         157.538         -47.0636        -51.7023         -47.0636        -51.7021       -0.0397221          138.77
0.664                   -5.78289         156.134         -46.9952        -53.8284         -46.9953        -53.8281       -0.0402293         138.674
0.665                   -5.71718         154.662         -46.9236        -55.9453         -46.9237        -55.9451       -0.0407451         138.578
0.666                   -5.66146         153.125         -46.8486        -58.0552         -46.8487         -58.055       -0.0412696         138.481
0.667                   -5.61569         151.528         -46.7702          -60.16         -46.7703        -60.1597       -0.0418033         138.384
0.668                   -5.57987         149.873         -46.6883        -62.2617         -46.6884        -62.2614       -0.0423462         138.287
0.669                   -5.55401         148.161         -46.6029        -64.3624         -46.6029        -64.3621       -0.0428986         138.189
0.67                    -5.53812         146.395         -46.5139         -66.464          -46.514        -66.4636       -0.0434609         138.091
0.671                   -5.53227         144.575         -46.4215        -68.5686         -46.4215        -68.5682       -0.0440332         137.992
0.672                   -5.53653         142.702         -46.3255        -70.6782         -46.3256        -70.6778       -0.0446158         137.892
0.673                   -5.55103         140.777         -46.2262        -72.7947         -46.2262        -72.7942       -0.0452091         137.792
0.674                   -5.57595         138.798         -46.1235        -74.9201         -46.1236        -74.9196       -0.0458133         137.692
0.675                    -5.6115         136.767         -46.0176        -77.0563         -46.0177        -77.0558       -0.0464287         137.591
0.676                   -5.65794         134.682         -45.9086        -79.2052         -45.9087        -79.2047       -0.0470556          137.49
0.677                    -5.7156         132.543         -45.7967        -81.3686         -45.7967         -81.368       -0.0476944         137.388
0.678                   -5.78485         130.347         -45.6819        -83.5483         -45.6819        -83.5477       -0.0483453         137.285
0.679                   -5.86613         128.095         -45.5646        -85.7459         -45.5646        -85.7454       -0.0490088         137.182
0.68                    -5.95995         125.783         -45.4448        -87.9633         -45.4448        -87.9627        -0.049685         137.078
0.681                   -6.06689         123.411         -45.3229        -90.2018         -45.3229        -90.2012       -0.0503745         136.974
0.682                   -6.18761         120.976         -45.1991        -92.4631          -45.199        -92.4625       -0.0510775         136.869
0.683                   -6.32285         118.475         -45.0736        -94.7484         -45.0736        -94.7478       -0.0517945         136.764
0.684                   -6.47344         115.905         -44.9468         -97.059         -44.9468        -97.0585       -0.0525258         136.658
0.685                   -6.64031         113.265          -44.819         -99.396          -44.819        -99.3956       -0.0532719         136.551
0.686                   -6.82449         110.549         -44.6905         -101.76         -44.6905         -101.76        -0.054033         136.444
0.687                   -7.02714         107.755         -44.5618        -104.153         -44.5617        -104.153       -0.0548097         136.336
0.688                   -7.24953         104.878         -44.4331        -106.575          -44.433        -106.574       -0.0556024         136.228
0.689                   -7.49308         101.913         -44.3048        -109.025         -44.3048        -109.025       -0.0564116         136.119
0.69                    -7.75938         98.8536         -44.1775        -111.505         -44.1774        -111.505       -0.0572376         136.009
0.691                   -8.05015         95.6939         -44.0514        -114.015         -44.0513        -114.015        -0.058081         135.898
0.692                   -8.36734         92.4258         -43.9271        -116.553          -43.927        -116.553       -0.0589422         135.787
0.693                    -8.7131         89.0398          -43.805         -119.12         -43.8049         -119.12       -0.0598218         135.675
0.694                    -9.0898         85.5246         -43.6854        -121.715         -43.6854        -121.715       -0.0607202         135.563
0.695                   -9.50009         81.8663          -43.569        -124.335         -43.5689        -124.335       -0.0616381         135.449
0.696                    -9.9469         78.0475          -43.456        -126.981         -43.4559        -126.981       -0.0625758         135.335