! TOUCHSTONE file generated by CST MICROWAVE STUDIO
! Date and time: Mon Nov 30 09:09:15 2020
! Project name: Scenario_1_Planar_Body_Tissue_Out_of_Line_v2.cst
! Parameters = {dy1=69.2; L_HA=400; Ltissue=700; MT=2.54; Rad_Dielectric=30; Rad_Lower=7.3; Rad_Upper=30; Wtissue=700; a_HA=580; a_WG=246; b_HA=500; b_WG=121; c_HA=0; c_WG=187; d_feed=85; dx1=346; h_feed=15; h_lower=18; h_upper=40; hfat=3; hgap=25; hmuscle=50; hskin=1.5}
! Header version: 2018
! Port assignment regex: !\s*Touchstone port\s*([0-9]+)\s*=\s*(CST MWS port|CST DS port)\s*([0-9]+|Zmin|Zmax)\s*\(\"(.*)\"\)(\s*mode\s*([0-9]+))?.*
! Touchstone port assignment:
! Touchstone port 1 = CST MWS port 1 ("")
! Touchstone port 2 = CST MWS port 2 ("")
# GHz S DB R 50
0.5                    -0.289386         -121.75         -55.3476         33.2544         -55.3475         33.2548      -0.00807158         151.148
0.501                  -0.300151        -122.116         -55.2124         30.7927         -55.2123         30.7932      -0.00813565         151.083
0.502                  -0.309749        -122.479         -55.0868         28.3292         -55.0867         28.3298      -0.00819995         151.018
0.503                  -0.318123         -122.84         -54.9708         25.8696         -54.9707         25.8702      -0.00826449         150.952
0.504                  -0.325264        -123.201         -54.8642         23.4194         -54.8642         23.4202      -0.00832926         150.887
0.505                  -0.331208        -123.563         -54.7671         20.9843         -54.7671         20.9852      -0.00839429         150.822
0.506                  -0.336022        -123.928          -54.679         18.5694          -54.679         18.5704      -0.00845957         150.757
0.507                  -0.339796        -124.296         -54.5996         16.1798         -54.5997         16.1809      -0.00852513         150.691
0.508                  -0.342637        -124.669         -54.5286         13.8202         -54.5286         13.8214      -0.00859096         150.626
0.509                  -0.344656        -125.046         -54.4654         11.4947         -54.4654          11.496      -0.00865707          150.56
0.51                   -0.345967        -125.429         -54.4095         9.20709         -54.4095         9.20844      -0.00872349         150.494
0.511                  -0.346679        -125.818         -54.3603         6.96065         -54.3604         6.96206      -0.00879021         150.429
0.512                  -0.346895        -126.213         -54.3172         4.75812         -54.3173         4.75957      -0.00885725         150.363
0.513                   -0.34671        -126.614         -54.2796         2.60176         -54.2797         2.60323      -0.00892462         150.297
0.514                  -0.346209        -127.021         -54.2469        0.493317         -54.2469        0.494797      -0.00899233         150.231
0.515                  -0.345467        -127.434         -54.2183        -1.56592         -54.2183        -1.56445       -0.0090604         150.165
0.516                  -0.344551        -127.854         -54.1933        -3.57512         -54.1933        -3.57367      -0.00912884         150.098
0.517                  -0.343519        -128.279         -54.1712        -5.53386         -54.1712        -5.53244      -0.00919765         150.032
0.518                  -0.342419         -128.71         -54.1515        -7.44208         -54.1515         -7.4407      -0.00926686         149.966
0.519                  -0.341296        -129.147         -54.1335        -9.30006         -54.1335        -9.29873      -0.00933647         149.899
0.52                   -0.340186         -129.59         -54.1168        -11.1084         -54.1168        -11.1071       -0.0094065         149.833
0.521                   -0.33912        -130.038         -54.1009        -12.8678         -54.1008        -12.8666      -0.00947697         149.766
0.522                  -0.338124        -130.492         -54.0852        -14.5795         -54.0852        -14.5784      -0.00954789         149.699
0.523                  -0.337221        -130.951         -54.0694        -16.2445         -54.0693        -16.2435      -0.00961927         149.632
0.524                  -0.336431        -131.416         -54.0529        -17.8644         -54.0529        -17.8634      -0.00969112         149.565
0.525                   -0.33577        -131.885         -54.0356        -19.4404         -54.0355        -19.4396      -0.00976347         149.498
0.526                  -0.335251         -132.36          -54.017        -20.9743         -54.0169        -20.9735      -0.00983633         149.431
0.527                  -0.334889         -132.84         -53.9967        -22.4676         -53.9967        -22.4669      -0.00990972         149.364
0.528                  -0.334693        -133.325         -53.9747        -23.9219         -53.9746        -23.9214      -0.00998364         149.296
0.529                  -0.334672        -133.815         -53.9505        -25.3391         -53.9504        -25.3386       -0.0100581         149.229
0.53                   -0.334836         -134.31          -53.924        -26.7207         -53.9239        -26.7203       -0.0101332         149.161
0.531                  -0.335193         -134.81         -53.8949        -28.0686         -53.8949        -28.0682       -0.0102088         149.094
0.532                  -0.335749        -135.315         -53.8632        -29.3843         -53.8631         -29.384       -0.0102851         149.026
0.533                  -0.336512        -135.825         -53.8286        -30.6696         -53.8285        -30.6694        -0.010362         148.958
0.534                  -0.337488         -136.34          -53.791         -31.926         -53.7909        -31.9259       -0.0104395          148.89
0.535                  -0.338685         -136.86         -53.7502        -33.1553         -53.7501        -33.1552       -0.0105177         148.822
0.536                  -0.340107        -137.385         -53.7063        -34.3589         -53.7062        -34.3589       -0.0105966         148.754
0.537                  -0.341763        -137.915          -53.659        -35.5384         -53.6589        -35.5385       -0.0106761         148.686
0.538                  -0.343659        -138.451         -53.6083        -36.6953         -53.6082        -36.6954       -0.0107564         148.617
0.539                  -0.345802        -138.991         -53.5542         -37.831         -53.5541        -37.8312       -0.0108374         148.549
0.54                   -0.348199        -139.537         -53.4965         -38.947         -53.4964        -38.9472       -0.0109192          148.48
0.541                  -0.350858        -140.088         -53.4353        -40.0446         -53.4352        -40.0448       -0.0110017         148.412
0.542                  -0.353788        -140.645         -53.3704         -41.125         -53.3704        -41.1252        -0.011085         148.343
0.543                  -0.356996        -141.207         -53.3019        -42.1896         -53.3019        -42.1899       -0.0111692         148.274
0.544                  -0.360493        -141.775         -53.2298        -43.2396         -53.2297        -43.2399       -0.0112541         148.205
0.545                  -0.364288        -142.348         -53.1539        -44.2762         -53.1539        -44.2765       -0.0113399         148.136
0.546                  -0.368392        -142.927         -53.0744        -45.3005         -53.0743        -45.3008       -0.0114266         148.066
0.547                  -0.372815        -143.512         -52.9911        -46.3137         -52.9911         -46.314       -0.0115141         147.997
0.548                   -0.37757        -144.103         -52.9041        -47.3168         -52.9041        -47.3171       -0.0116026         147.928
0.549                   -0.38267          -144.7         -52.8134        -48.3109         -52.8134        -48.3112       -0.0116919         147.858
0.55                   -0.388128        -145.303         -52.7189         -49.297         -52.7189        -49.2973       -0.0117822         147.788
0.551                  -0.393959        -145.913         -52.6208         -50.276         -52.6208        -50.2763       -0.0118734         147.718
0.552                  -0.400178        -146.529         -52.5189        -51.2489         -52.5188        -51.2492       -0.0119656         147.648
0.553                  -0.406803        -147.152         -52.4132        -52.2168         -52.4132         -52.217       -0.0120587         147.578
0.554                  -0.413852        -147.781         -52.3039        -53.1803         -52.3039        -53.1806       -0.0121528         147.508
0.555                  -0.421343        -148.418         -52.1908        -54.1406         -52.1908        -54.1408       -0.0122479         147.438
0.556                  -0.429298        -149.061          -52.074        -55.0984          -52.074        -55.0986       -0.0123439         147.367
0.557                  -0.437738        -149.712         -51.9536        -56.0545         -51.9536        -56.0547       -0.0124409         147.297
0.558                  -0.446689         -150.37         -51.8294        -57.0099         -51.8294          -57.01       -0.0125389         147.226
0.559                  -0.456174        -151.036         -51.7016        -57.9652         -51.7016        -57.9654       -0.0126378         147.155
0.56                   -0.466221         -151.71         -51.5701        -58.9215         -51.5701        -58.9216       -0.0127377         147.084
0.561                  -0.476861        -152.391          -51.435        -59.8794          -51.435        -59.8795       -0.0128383         147.013
0.562                  -0.488123        -153.081         -51.2962        -60.8397         -51.2962        -60.8398       -0.0129398         146.942
0.563                  -0.500043         -153.78         -51.1538        -61.8033         -51.1538        -61.8034        -0.013042         146.871
0.564                  -0.512656        -154.487         -51.0077         -62.771         -51.0078         -62.771       -0.0131448         146.799
0.565                  -0.526001        -155.202         -50.8581        -63.7434         -50.8581        -63.7434        -0.013248         146.727
0.566                  -0.540121        -155.927         -50.7048        -64.7215         -50.7048        -64.7215       -0.0133514         146.656
0.567                  -0.555061        -156.662          -50.548         -65.706          -50.548        -65.7059       -0.0134548         146.584
0.568                  -0.570869        -157.406         -50.3876        -66.6976         -50.3876        -66.6976       -0.0135576         146.512
0.569                  -0.587597        -158.159         -50.2236        -67.6973         -50.2236        -67.6972       -0.0136594         146.439
0.57                   -0.605303        -158.923          -50.056        -68.7058          -50.056        -68.7057       -0.0137595         146.367
0.571                  -0.624046        -159.698         -49.8849        -69.7239          -49.885        -69.7238       -0.0138569         146.294
0.572                  -0.643893        -160.483         -49.7103        -70.7525         -49.7104        -70.7524       -0.0139505         146.222
0.573                  -0.664914        -161.279         -49.5322        -71.7925         -49.5322        -71.7923        -0.014039         146.149
0.574                  -0.687186        -162.087         -49.3506        -72.8446         -49.3506        -72.8444       -0.0141214         146.076
0.575                  -0.710791        -162.906         -49.1655        -73.9099         -49.1655        -73.9097       -0.0141979         146.003
0.576                  -0.735818        -163.737          -48.977        -74.9892          -48.977        -74.9889        -0.014272          145.93
0.577                  -0.762365         -164.58          -48.785        -76.0834          -48.785        -76.0831       -0.0143533         145.857
0.578                  -0.790536        -165.436         -48.5896        -77.1935         -48.5896        -77.1932       -0.0144574         145.784
0.579                  -0.820443        -166.305         -48.3908        -78.3205         -48.3908        -78.3203       -0.0145984         145.711
0.58                    -0.85221        -167.187         -48.1887        -79.4655         -48.1887        -79.4652       -0.0147767         145.638
0.581                   -0.88597        -168.083         -47.9832        -80.6294         -47.9832        -80.6291       -0.0149779         145.564
0.582                  -0.921867        -168.993         -47.7744        -81.8134         -47.7744        -81.8131       -0.0151846          145.49
0.583                  -0.960057        -169.917         -47.5624        -83.0185         -47.5624        -83.0183        -0.015386         145.416
0.584                   -1.00071        -170.855         -47.3472         -84.246         -47.3472        -84.2458       -0.0155788         145.342
0.585                   -1.04401        -171.808         -47.1289        -85.4971         -47.1288        -85.4969       -0.0157636         145.267
0.586                   -1.09016        -172.777         -46.9074         -86.773         -46.9074        -86.7727       -0.0159425         145.192
0.587                   -1.13938         -173.76          -46.683        -88.0749          -46.683        -88.0747       -0.0161174         145.117
0.588                   -1.19189        -174.759         -46.4556        -89.4043         -46.4556        -89.4041       -0.0162901         145.042
0.589                   -1.24797        -175.774         -46.2254        -90.7624         -46.2254        -90.7622       -0.0164619         144.966
0.59                    -1.30789        -176.804         -45.9925        -92.1508         -45.9925        -92.1506       -0.0166339         144.891
0.591                   -1.37194         -177.85         -45.7569        -93.5708         -45.7569        -93.5706       -0.0168067         144.815
0.592                   -1.44047        -178.912         -45.5189        -95.0239         -45.5188        -95.0237       -0.0169809         144.739
0.593                   -1.51383        -179.989         -45.2785        -96.5117         -45.2784        -96.5116       -0.0171571         144.663
0.594                   -1.59241         178.919         -45.0359        -98.0357         -45.0358        -98.0356       -0.0173356         144.587
0.595                   -1.67663         177.812         -44.7913        -99.5975         -44.7913        -99.5975       -0.0175167          144.51
0.596                   -1.76694         176.692         -44.5449        -101.199         -44.5449        -101.199       -0.0177007         144.434
0.597                   -1.86384         175.558          -44.297        -102.841         -44.2969        -102.841       -0.0178878         144.357
0.598                   -1.96786         174.413         -44.0477        -104.526         -44.0477        -104.526       -0.0180782          144.28
0.599                   -2.07956         173.257         -43.7974        -106.255         -43.7974        -106.255       -0.0182722         144.203
0.6                     -2.19957         172.094         -43.5464         -108.03         -43.5464         -108.03       -0.0184698         144.125
0.601                   -2.32854         170.924          -43.295        -109.852          -43.295        -109.852       -0.0186714         144.048
0.602                   -2.46716         169.751         -43.0436        -111.723         -43.0436        -111.723       -0.0188771          143.97
0.603                   -2.61618         168.579         -42.7926        -113.644         -42.7926        -113.644       -0.0190871         143.892
0.604                   -2.77637         167.412         -42.5425        -115.616         -42.5424        -115.617       -0.0193015         143.814
0.605                   -2.94854         166.256         -42.2936        -117.641         -42.2936        -117.641       -0.0195206         143.735
0.606                   -3.13352         165.115         -42.0467        -119.719         -42.0466        -119.719       -0.0197446         143.657
0.607                   -3.33216         163.999         -41.8021         -121.85          -41.802         -121.85       -0.0199737         143.578
0.608                   -3.54529         162.915         -41.5604        -124.036         -41.5604        -124.036        -0.020208         143.499
0.609                   -3.77372         161.875         -41.3224        -126.275         -41.3224        -126.275       -0.0204477          143.42
0.61                    -4.01819         160.889         -41.0885        -128.568         -41.0885        -128.569       -0.0206931          143.34
0.611                   -4.27935         159.973         -40.8596        -130.914         -40.8596        -130.915       -0.0209444         143.261
0.612                   -4.55767         159.142         -40.6361        -133.312         -40.6362        -133.312       -0.0212016         143.181
0.613                   -4.85338         158.416         -40.4189         -135.76          -40.419         -135.76       -0.0214651         143.101
0.614                   -5.16637         157.815         -40.2086        -138.255         -40.2086        -138.256        -0.021735          143.02
0.615                   -5.49607         157.365         -40.0058        -140.796         -40.0059        -140.796       -0.0220114          142.94
0.616                   -5.84129         157.092         -39.8112        -143.378         -39.8113        -143.378       -0.0222945         142.859
0.617                   -6.20003         157.025         -39.6254        -145.998         -39.6254        -145.998       -0.0225843         142.778
0.618                   -6.56927         157.194         -39.4489        -148.652         -39.4489        -148.652       -0.0228809         142.697
0.619                   -6.94469         157.631         -39.2821        -151.334         -39.2821        -151.335       -0.0231843         142.616
0.62                    -7.32051         158.365         -39.1255        -154.041         -39.1255        -154.041       -0.0234944         142.534
0.621                   -7.68926         159.421         -38.9794        -156.765         -38.9794        -156.765       -0.0238112         142.452
0.622                   -8.04176         160.812          -38.844        -159.502          -38.844        -159.502       -0.0241344          142.37
0.623                   -8.36733         162.543         -38.7194        -162.245         -38.7195        -162.245       -0.0244637         142.288
0.624                   -8.65435         164.593         -38.6056        -164.988         -38.6057        -164.988       -0.0247989         142.205
0.625                   -8.89124         166.925         -38.5026        -167.726         -38.5027        -167.726       -0.0251395         142.123
0.626                   -9.06775         169.473         -38.4102        -170.452         -38.4102        -170.452        -0.025485          142.04
0.627                   -9.17647         172.153         -38.3279        -173.162          -38.328        -173.162       -0.0258348         141.957
0.628                   -9.21395         174.866         -38.2556        -175.849         -38.2557        -175.849       -0.0261883         141.873
0.629                   -9.18132         177.512         -38.1927        -178.509         -38.1928        -178.508       -0.0265448          141.79
0.63                    -9.08402         179.998         -38.1387         178.863         -38.1387         178.863       -0.0269036         141.706
0.631                   -8.93075        -177.748          -38.093         176.271          -38.093         176.271        -0.027264         141.622
0.632                   -8.73213        -175.778          -38.055         173.717          -38.055         173.717       -0.0276253         141.537
0.633                    -8.4993        -174.119          -38.024         171.205         -38.0241         171.205       -0.0279869         141.453
0.634                   -8.24283        -172.778         -37.9994         168.737         -37.9995         168.738       -0.0283482         141.368
0.635                   -7.97199        -171.749         -37.9805         166.315         -37.9805         166.316       -0.0287088         141.283
0.636                   -7.69451        -171.014         -37.9666         163.941         -37.9666         163.941       -0.0290685         141.197
0.637                    -7.4165        -170.548         -37.9571         161.615         -37.9571         161.615       -0.0294269         141.112
0.638                   -7.14257        -170.326         -37.9512         159.337         -37.9512         159.338       -0.0297841         141.026
0.639                    -6.8761        -170.321         -37.9485         157.108         -37.9484         157.109       -0.0301402          140.94
0.64                    -6.61942        -170.506         -37.9482         154.928         -37.9481         154.928       -0.0304953         140.853
0.641                   -6.37406        -170.859         -37.9498         152.795         -37.9498         152.795         -0.03085         140.766
0.642                   -6.14092        -171.357         -37.9528         150.709         -37.9528         150.709       -0.0312045         140.679
0.643                   -5.92044        -171.982         -37.9567         148.669         -37.9567         148.669       -0.0315595         140.591
0.644                   -5.71273        -172.716         -37.9611         146.673          -37.961         146.674       -0.0319155         140.503
0.645                   -5.51766        -173.546         -37.9655         144.721         -37.9654         144.721       -0.0322731         140.415
0.646                   -5.33492        -174.458         -37.9695          142.81         -37.9695         142.811       -0.0326331         140.326
0.647                    -5.1641        -175.443         -37.9729          140.94         -37.9728         140.941       -0.0329961         140.237
0.648                   -5.00473         -176.49         -37.9751         139.108         -37.9751         139.109       -0.0333627         140.148
0.649                   -4.85628        -177.593         -37.9761         137.313          -37.976         137.314       -0.0337336         140.058
0.65                    -4.71822        -178.744         -37.9755         135.554         -37.9754         135.554       -0.0341093         139.968
0.651                   -4.59001        -179.937         -37.9731         133.827          -37.973         133.827       -0.0344906         139.878
0.652                   -4.47114          178.83         -37.9686         132.132         -37.9685         132.132       -0.0348779         139.787
0.653                    -4.3611         177.564         -37.9619         130.467         -37.9618         130.467       -0.0352717         139.695
0.654                    -4.2594         176.266         -37.9529          128.83         -37.9528          128.83       -0.0356725         139.604
0.655                    -4.1656          174.94         -37.9413          127.22         -37.9412          127.22       -0.0360807         139.512
0.656                   -4.07927         173.588         -37.9271         125.635         -37.9269         125.635       -0.0364968         139.419
0.657                         -4         172.212         -37.9101         124.072         -37.9099         124.072       -0.0369212         139.326
0.658                   -3.92744         170.813         -37.8902         122.532         -37.8901         122.532       -0.0373541         139.233
0.659                   -3.86124         169.391         -37.8674         121.011         -37.8672         121.011       -0.0377959         139.139
0.66                    -3.80109         167.949         -37.8415         119.509         -37.8414         119.509       -0.0382469         139.045
0.661                    -3.7467         166.487         -37.8126         118.024         -37.8124         118.024       -0.0387074          138.95
0.662                   -3.69781         165.004         -37.7805         116.555         -37.7804         116.555       -0.0391776         138.855
0.663                   -3.65418         163.502         -37.7452         115.099         -37.7451         115.099       -0.0396579         138.759
0.664                    -3.6156         161.981         -37.7067         113.657         -37.7066         113.657       -0.0401485         138.663
0.665                   -3.58187         160.439          -37.665         112.226         -37.6649         112.226       -0.0406496         138.567
0.666                   -3.55283         158.878           -37.62         110.805         -37.6199         110.805       -0.0411614          138.47
0.667                   -3.52831         157.297         -37.5718         109.393         -37.5716         109.393       -0.0416843         138.373
0.668                   -3.50818         155.695         -37.5202         107.988         -37.5201         107.988       -0.0422183         138.275
0.669                   -3.49233         154.073         -37.4654          106.59         -37.4653          106.59       -0.0427639         138.176
0.67                    -3.48065         152.428         -37.4073         105.196         -37.4072         105.196       -0.0433211         138.077
0.671                   -3.47305         150.762          -37.346         103.807         -37.3459         103.806       -0.0438903         137.978
0.672                   -3.46947         149.072         -37.2814          102.42         -37.2813         102.419       -0.0444716         137.878
0.673                   -3.46985         147.359         -37.2136         101.034         -37.2135         101.034       -0.0450654         137.778
0.674                   -3.47413         145.621         -37.1426         99.6483         -37.1425         99.6481       -0.0456718         137.677
0.675                   -3.48231         143.857         -37.0685         98.2619         -37.0684         98.2617       -0.0462912         137.576
0.676                   -3.49434         142.068         -36.9912         96.8734         -36.9911         96.8732       -0.0469238         137.474
0.677                   -3.51024          140.25         -36.9109         95.4817         -36.9108         95.4815       -0.0475698         137.371
0.678                      -3.53         138.404         -36.8276         94.0856         -36.8275         94.0854       -0.0482295         137.268
0.679                   -3.55365         136.528         -36.7413          92.684         -36.7412         92.6838       -0.0489033         137.165
0.68                     -3.5812         134.622         -36.6521         91.2759          -36.652         91.2757       -0.0495915         137.061
0.681                    -3.6127         132.683           -36.56         89.8601           -36.56         89.8599       -0.0502942         136.956
0.682                   -3.64819          130.71         -36.4652         88.4355         -36.4652         88.4354       -0.0510119         136.851
0.683                   -3.68774         128.703         -36.3678         87.0011         -36.3677         87.0009       -0.0517449         136.745
0.684                   -3.73142         126.659         -36.2678         85.5557         -36.2677         85.5556       -0.0524935         136.638
0.685                   -3.77929         124.577         -36.1653         84.0984         -36.1652         84.0983        -0.053258         136.531
0.686                   -3.83145         122.455         -36.0605          82.628         -36.0604         82.6279       -0.0540389         136.423
0.687                   -3.88798         120.292         -35.9534         81.1436         -35.9533         81.1435       -0.0548364         136.315
0.688                     -3.949         118.086         -35.8441         79.6442         -35.8441         79.6441        -0.055651         136.206
0.689                   -4.01461         115.836          -35.733         78.1287         -35.7329         78.1286       -0.0564831         136.096
0.69                    -4.08492         113.538         -35.6199         76.5962         -35.6199         76.5962       -0.0573331         135.986
0.691                   -4.16006         111.192         -35.5053         75.0458         -35.5052         75.0458       -0.0582013         135.875
0.692                   -4.24015         108.795         -35.3891         73.4766          -35.389         73.4767       -0.0590883         135.763
0.693                   -4.32531         106.346         -35.2716         71.8879         -35.2715         71.8879       -0.0599945         135.651
0.694                   -4.41568         103.841         -35.1529         70.2787         -35.1529         70.2788       -0.0609203         135.538
0.695                   -4.51138         101.278         -35.0334         68.6485         -35.0333         68.6486       -0.0618663         135.424
0.696                   -4.61254         98.6554         -34.9131         66.9965         -34.9131         66.9966       -0.0628329         135.309