! TOUCHSTONE file generated by CST MICROWAVE STUDIO
! Date and time: Sat Nov 14 20:38:56 2020
! Project name: Scenario_1_Planar_Body_Tissue_Out_of_Line_v2.cst
! Parameters = {dy1=-86.5; L_HA=400; Ltissue=700; MT=2.54; Rad_Dielectric=30; Rad_Lower=7.3; Rad_Upper=30; Wtissue=700; a_HA=580; a_WG=246; b_HA=500; b_WG=121; c_HA=0; c_WG=187; d_feed=85; dx1=173; h_feed=15; h_lower=18; h_upper=40; hfat=3; hgap=25; hmuscle=50; hskin=1.5}
! Header version: 2018
! Port assignment regex: !\s*Touchstone port\s*([0-9]+)\s*=\s*(CST MWS port|CST DS port)\s*([0-9]+|Zmin|Zmax)\s*\(\"(.*)\"\)(\s*mode\s*([0-9]+))?.*
! Touchstone port assignment:
! Touchstone port 1 = CST MWS port 1 ("")
! Touchstone port 2 = CST MWS port 2 ("")
# GHz S DB R 50
0.5                   -0.0442795        -121.763         -57.4471         131.669          -57.447          131.67      -0.00705113         151.152
0.501                 -0.0454138        -122.212         -57.2762         131.059         -57.2761         131.059        -0.007102         151.087
0.502                 -0.0466145        -122.664         -57.1032         130.446          -57.103         130.446      -0.00715345         151.021
0.503                 -0.0478853         -123.12          -56.928          129.83         -56.9278          129.83      -0.00720546         150.956
0.504                 -0.0492302        -123.579         -56.7505         129.211         -56.7504         129.212      -0.00725804          150.89
0.505                 -0.0506536        -124.042         -56.5708         128.589         -56.5706          128.59      -0.00731121         150.825
0.506                 -0.0521599        -124.509         -56.3887         127.964         -56.3886         127.965      -0.00736495         150.759
0.507                 -0.0537542         -124.98         -56.2042         127.336         -56.2041         127.337      -0.00741928         150.693
0.508                 -0.0554417        -125.455         -56.0174         126.704         -56.0172         126.705      -0.00747421         150.627
0.509                 -0.0572282        -125.933          -55.828         126.069         -55.8279         126.069      -0.00752973         150.561
0.51                  -0.0591199        -126.416         -55.6361         125.429          -55.636          125.43      -0.00758584         150.495
0.511                 -0.0611234        -126.903         -55.4415         124.786         -55.4414         124.786      -0.00764257         150.429
0.512                  -0.063246        -127.395         -55.2444         124.138         -55.2443         124.139      -0.00769991         150.363
0.513                 -0.0654955        -127.891         -55.0445         123.486         -55.0444         123.486      -0.00775786         150.297
0.514                 -0.0678803        -128.392         -54.8418         122.829         -54.8417         122.829      -0.00781645         150.231
0.515                 -0.0704097        -128.898         -54.6362         122.167         -54.6362         122.167      -0.00787566         150.164
0.516                 -0.0730935        -129.409         -54.4278         121.499         -54.4277         121.499      -0.00793552         150.098
0.517                 -0.0759428        -129.925         -54.2163         120.826         -54.2163         120.826      -0.00799603         150.031
0.518                 -0.0789692        -130.447         -54.0018         120.147         -54.0018         120.147      -0.00805719         149.964
0.519                 -0.0821856        -130.974         -53.7842         119.461         -53.7841         119.462      -0.00811903         149.897
0.52                  -0.0856062        -131.507         -53.5633         118.769         -53.5633         118.769      -0.00818156         149.831
0.521                 -0.0892463        -132.045         -53.3391          118.07         -53.3391          118.07      -0.00824478         149.764
0.522                 -0.0931228         -132.59         -53.1116         117.363         -53.1115         117.363      -0.00830872         149.696
0.523                  -0.097254        -133.141         -52.8805         116.647         -52.8805         116.648      -0.00837338         149.629
0.524                   -0.10166        -133.699         -52.6459         115.924         -52.6459         115.924       -0.0084388         149.562
0.525                  -0.106364        -134.264         -52.4076         115.191         -52.4076         115.191      -0.00850499         149.495
0.526                  -0.111389        -134.836         -52.1655         114.448         -52.1655         114.448      -0.00857197         149.427
0.527                  -0.116764        -135.415         -51.9196         113.695         -51.9196         113.696      -0.00863978          149.36
0.528                  -0.122517        -136.003         -51.6697         112.931         -51.6697         112.931      -0.00870844         149.292
0.529                  -0.128682        -136.598         -51.4156         112.155         -51.4157         112.156      -0.00877798         149.224
0.53                   -0.135296        -137.202         -51.1574         111.367         -51.1574         111.367      -0.00884846         149.156
0.531                  -0.142399        -137.815         -50.8948         110.565         -50.8949         110.565      -0.00891991         149.088
0.532                  -0.150037        -138.436         -50.6278         109.748         -50.6278         109.748      -0.00899238          149.02
0.533                   -0.15826        -139.068         -50.3562         108.916         -50.3562         108.916      -0.00906594         148.952
0.534                  -0.167124         -139.71         -50.0798         108.068         -50.0799         108.068      -0.00914064         148.884
0.535                  -0.176692        -140.362         -49.7986         107.201         -49.7987         107.201      -0.00921657         148.815
0.536                  -0.187035        -141.026         -49.5124         106.316         -49.5124         106.316      -0.00929381         148.747
0.537                  -0.198233        -141.701          -49.221          105.41         -49.2211          105.41      -0.00937246         148.678
0.538                  -0.210374        -142.389         -48.9243         104.481         -48.9244         104.482      -0.00945264         148.609
0.539                  -0.223559        -143.089         -48.6222          103.53         -48.6222          103.53      -0.00953448          148.54
0.54                   -0.237901        -143.803         -48.3144         102.552         -48.3144         102.552      -0.00961812         148.471
0.541                  -0.253531        -144.532         -48.0008         101.547         -48.0008         101.547      -0.00970375         148.402
0.542                  -0.270592        -145.276         -47.6812         100.512         -47.6813         100.512      -0.00979157         148.333
0.543                  -0.289253        -146.036         -47.3556         99.4445         -47.3556         99.4447       -0.0098818         148.263
0.544                  -0.309702        -146.812         -47.0236         98.3423         -47.0236         98.3426      -0.00997471         148.194
0.545                  -0.332157        -147.607         -46.6851         97.2024         -46.6852         97.2027       -0.0100706         148.124
0.546                  -0.356865        -148.421           -46.34         96.0215         -46.3401         96.0218       -0.0101699         148.054
0.547                  -0.384111        -149.254         -45.9881         94.7962         -45.9882         94.7964       -0.0102729         147.985
0.548                  -0.414225        -150.108         -45.6293         93.5225         -45.6294         93.5228       -0.0103802         147.914
0.549                  -0.447584        -150.985         -45.2634         92.1963         -45.2635         92.1965       -0.0104923         147.844
0.55                   -0.484627        -151.884         -44.8904         90.8129         -44.8904         90.8131       -0.0106098         147.774
0.551                   -0.52586        -152.808           -44.51          89.367           -44.51         89.3673       -0.0107335         147.703
0.552                  -0.571873        -153.757         -44.1223         87.8532         -44.1224         87.8534       -0.0108642         147.633
0.553                  -0.623349        -154.733         -43.7273          86.265         -43.7274         86.2653        -0.011003         147.562
0.554                  -0.681086        -155.736         -43.3251         84.5957         -43.3251          84.596       -0.0111509         147.491
0.555                  -0.746011        -156.766         -42.9157         82.8377         -42.9157         82.8379       -0.0113093         147.419
0.556                  -0.819208        -157.824         -42.4994         80.9826         -42.4994         80.9829       -0.0114795         147.348
0.557                  -0.901934         -158.91         -42.0765         79.0216         -42.0765         79.0218       -0.0116632         147.277
0.558                  -0.995655        -160.021         -41.6476         76.9447         -41.6477          76.945       -0.0118623         147.205
0.559                   -1.10207        -161.155         -41.2135         74.7415         -41.2135         74.7417       -0.0120787         147.133
0.56                    -1.22313        -162.309         -40.7749         72.4006         -40.7749         72.4008       -0.0123146         147.061
0.561                   -1.36107        -163.474         -40.3332         69.9102         -40.3332         69.9104       -0.0125722         146.989
0.562                   -1.51841        -164.642         -39.8899         67.2581         -39.8899         67.2582       -0.0128539         146.917
0.563                   -1.69795        -165.798          -39.447         64.4319          -39.447         64.4321       -0.0131618         146.844
0.564                   -1.90267        -166.921          -39.007         61.4199          -39.007           61.42       -0.0134978         146.772
0.565                   -2.13565        -167.985         -38.5729         58.2111         -38.5729         58.2112       -0.0138634           146.7
0.566                   -2.39977        -168.953         -38.1481         54.7966         -38.1481         54.7967       -0.0142592         146.627
0.567                    -2.6973        -169.774         -37.7367         51.1705         -37.7367         51.1705       -0.0146849         146.555
0.568                   -3.02927        -170.388         -37.3435         47.3309         -37.3435          47.331       -0.0151385         146.482
0.569                   -3.39438        -170.716         -36.9735         43.2819         -36.9735         43.2819       -0.0156167          146.41
0.57                    -3.78772         -170.67          -36.632         39.0342          -36.632         39.0342       -0.0161139         146.338
0.571                   -4.19905        -170.152         -36.3243         34.6065         -36.3244         34.6065       -0.0166229         146.266
0.572                    -4.6112        -169.075         -36.0555         30.0259         -36.0555         30.0259       -0.0171347         146.194
0.573                   -4.99937        -167.381         -35.8297         25.3278         -35.8298         25.3278       -0.0176392         146.122
0.574                    -5.3325        -165.075         -35.6501         20.5543         -35.6501         20.5543       -0.0181261         146.051
0.575                   -5.57814        -162.256         -35.5182          15.752         -35.5183         15.7519       -0.0185856         145.979
0.576                   -5.71043        -159.117         -35.4342         10.9692         -35.4342         10.9692       -0.0190092         145.908
0.577                   -5.71816        -155.919         -35.3964         6.25271         -35.3964         6.25273       -0.0193908         145.837
0.578                   -5.60841        -152.925         -35.4018         1.64478         -35.4018         1.64482       -0.0197268         145.766
0.579                   -5.40328        -150.342         -35.4463        -2.81913         -35.4463        -2.81909       -0.0200161         145.695
0.58                    -5.13214        -148.282         -35.5248        -7.11167         -35.5248         -7.1116       -0.0202601         145.623
0.581                   -4.82389        -146.773         -35.6322        -11.2139         -35.6322        -11.2138       -0.0204621         145.552
0.582                   -4.50223         -145.78         -35.7631        -15.1147         -35.7631        -15.1146       -0.0206266          145.48
0.583                   -4.18413        -145.236         -35.9125        -18.8101         -35.9125          -18.81       -0.0207591         145.408
0.584                   -3.88043        -145.064         -36.0757        -22.3016         -36.0757        -22.3016        -0.020865         145.336
0.585                   -3.59718         -145.19         -36.2486         -25.595         -36.2486        -25.5949       -0.0209496         145.263
0.586                   -3.33709        -145.549         -36.4278         -28.699         -36.4278        -28.6989       -0.0210181          145.19
0.587                   -3.10074        -146.087         -36.6103        -31.6243         -36.6103        -31.6243       -0.0210747         145.117
0.588                   -2.88738        -146.761         -36.7936        -34.3827         -36.7936        -34.3827       -0.0211233         145.043
0.589                   -2.69557        -147.536         -36.9758        -36.9863         -36.9758        -36.9863       -0.0211669          144.97
0.59                    -2.52355        -148.387         -37.1553        -39.4472         -37.1553        -39.4472       -0.0212083         144.895
0.591                   -2.36945        -149.293          -37.331        -41.7771         -37.3309        -41.7772       -0.0212493         144.821
0.592                   -2.23145        -150.239         -37.5018        -43.9872         -37.5017        -43.9872       -0.0212916         144.746
0.593                   -2.10783        -151.214          -37.667        -46.0877          -37.667        -46.0878       -0.0213364         144.671
0.594                   -1.99701        -152.209         -37.8263        -48.0884         -37.8262        -48.0886       -0.0213846         144.596
0.595                   -1.89758        -153.218         -37.9791        -49.9982         -37.9791        -49.9983       -0.0214368         144.521
0.596                   -1.80829        -154.236         -38.1254        -51.8251         -38.1253        -51.8253       -0.0214934         144.445
0.597                   -1.72801         -155.26         -38.2649        -53.5766         -38.2648        -53.5768       -0.0215546         144.369
0.598                   -1.65577        -156.287         -38.3976        -55.2593         -38.3976        -55.2596       -0.0216207         144.293
0.599                   -1.59071        -157.316         -38.5235        -56.8794         -38.5235        -56.8797       -0.0216916         144.216
0.6                     -1.53207        -158.346         -38.6428        -58.4424         -38.6427        -58.4427       -0.0217673          144.14
0.601                   -1.47919        -159.375         -38.7553        -59.9532         -38.7553        -59.9535       -0.0218476         144.063
0.602                   -1.43149        -160.404         -38.8614        -61.4164         -38.8613        -61.4167       -0.0219327         143.986
0.603                   -1.38847        -161.433          -38.961         -62.836         -38.9609        -62.8364       -0.0220223         143.909
0.604                   -1.34967        -162.461         -39.0543        -64.2158         -39.0543        -64.2162       -0.0221165         143.832
0.605                   -1.31472        -163.489         -39.1416        -65.5592         -39.1416        -65.5596       -0.0222156         143.754
0.606                   -1.28327        -164.518         -39.2229        -66.8691         -39.2228        -66.8695       -0.0223198         143.677
0.607                   -1.25502        -165.546         -39.2984        -68.1483         -39.2983        -68.1488       -0.0224301         143.599
0.608                    -1.2297        -166.576         -39.3682        -69.3994         -39.3682        -69.3999        -0.022548         143.521
0.609                   -1.20708        -167.607         -39.4325        -70.6247         -39.4325        -70.6252        -0.022676         143.443
0.61                    -1.18695         -168.64         -39.4915        -71.8263         -39.4915        -71.8268       -0.0228183         143.365
0.611                   -1.16914        -169.676         -39.5453         -73.006         -39.5453        -73.0065       -0.0229815         143.287
0.612                   -1.15348        -170.714          -39.594        -74.1657          -39.594        -74.1662        -0.023176         143.209
0.613                   -1.13983        -171.756         -39.6379         -75.307         -39.6378        -75.3075       -0.0234172         143.131
0.614                   -1.12807        -172.803         -39.6769        -76.4313         -39.6769        -76.4318       -0.0237266         143.052
0.615                    -1.1181        -173.854         -39.7112        -77.5401         -39.7112        -77.5406       -0.0241296         142.974
0.616                    -1.1098         -174.91          -39.741        -78.6346          -39.741        -78.6351       -0.0246483         142.895
0.617                   -1.10311        -175.972         -39.7664         -79.716         -39.7664        -79.7166       -0.0252846         142.816
0.618                   -1.09795         -177.04         -39.7875        -80.7855         -39.7875         -80.786        -0.026001         142.735
0.619                   -1.09425        -178.116         -39.8043         -81.844         -39.8043        -81.8445       -0.0267188         142.653
0.62                    -1.09197        -179.199         -39.8171        -82.8925         -39.8171         -82.893       -0.0273523          142.57
0.621                   -1.09105          179.71         -39.8258         -83.932         -39.8258        -83.9325       -0.0278518         142.486
0.622                   -1.09145         178.611         -39.8306        -84.9633         -39.8306        -84.9638       -0.0282182         142.401
0.623                   -1.09315         177.502         -39.8315        -85.9872         -39.8315        -85.9877       -0.0284831         142.317
0.624                   -1.09612         176.383         -39.8287        -87.0046         -39.8287        -87.0051       -0.0286847         142.232
0.625                   -1.10033         175.254         -39.8221        -88.0161         -39.8221        -88.0166       -0.0288536         142.148
0.626                   -1.10578         174.114          -39.812        -89.0226          -39.812         -89.023       -0.0290104         142.064
0.627                   -1.11246         172.963         -39.7983        -90.0246         -39.7983        -90.0251       -0.0291677          141.98
0.628                   -1.12035         171.799         -39.7811         -91.023         -39.7811        -91.0234       -0.0293322         141.896
0.629                   -1.12947         170.623         -39.7605        -92.0182         -39.7605        -92.0186       -0.0295074         141.811
0.63                    -1.13982         169.434         -39.7365         -93.011         -39.7365        -93.0114       -0.0296948         141.727
0.631                    -1.1514          168.23         -39.7092        -94.0019         -39.7092        -94.0023       -0.0298948         141.642
0.632                   -1.16422         167.012         -39.6787        -94.9917         -39.6787        -94.9921       -0.0301073         141.558
0.633                   -1.17832         165.779         -39.6449        -95.9809         -39.6449        -95.9812       -0.0303319         141.472
0.634                   -1.19371         164.529          -39.608          -96.97          -39.608        -96.9703       -0.0305681         141.387
0.635                   -1.21042         163.264          -39.568        -97.9597         -39.5681          -97.96       -0.0308153         141.302
0.636                   -1.22847         161.981          -39.525        -98.9506          -39.525        -98.9509        -0.031073         141.216
0.637                   -1.24791          160.68          -39.479        -99.9432          -39.479        -99.9435       -0.0313409          141.13
0.638                   -1.26877          159.36           -39.43        -100.938           -39.43        -100.938       -0.0316184         141.043
0.639                    -1.2911         158.021         -39.3781        -101.936         -39.3781        -101.936       -0.0319054         140.957
0.64                    -1.31494         156.662         -39.3233        -102.937         -39.3233        -102.938       -0.0322013          140.87
0.641                   -1.34035         155.282         -39.2657        -103.943         -39.2657        -103.943       -0.0325061         140.782
0.642                   -1.36738          153.88         -39.2054        -104.953         -39.2054        -104.953       -0.0328196         140.695
0.643                   -1.39611         152.456         -39.1423        -105.969         -39.1423        -105.969       -0.0331415         140.607
0.644                   -1.42659         151.008         -39.0766         -106.99         -39.0766         -106.99       -0.0334717         140.518
0.645                   -1.45889         149.535         -39.0082        -108.018         -39.0083        -108.018       -0.0338102          140.43
0.646                   -1.49311         148.037         -38.9373        -109.053         -38.9373        -109.053       -0.0341569         140.341
0.647                   -1.52931         146.514         -38.8639        -110.095         -38.8639        -110.096       -0.0345117         140.252
0.648                   -1.56759         144.962          -38.788        -111.147          -38.788        -111.147       -0.0348746         140.162
0.649                   -1.60804         143.383         -38.7098        -112.207         -38.7098        -112.207       -0.0352456         140.072
0.65                    -1.65077         141.774         -38.6292        -113.276         -38.6292        -113.276       -0.0356248         139.982
0.651                   -1.69588         140.135         -38.5463        -114.356         -38.5463        -114.356       -0.0360121         139.891
0.652                   -1.74348         138.465         -38.4613        -115.447         -38.4613        -115.447       -0.0364076           139.8
0.653                    -1.7937         136.762         -38.3741         -116.55         -38.3741         -116.55       -0.0368114         139.709
0.654                   -1.84666         135.025         -38.2849        -117.664         -38.2849        -117.664       -0.0372235         139.617
0.655                   -1.90249         133.253         -38.1938        -118.792         -38.1938        -118.792       -0.0376441         139.525
0.656                   -1.96134         131.444         -38.1007        -119.933         -38.1008        -119.933       -0.0380731         139.432
0.657                   -2.02336         129.598          -38.006        -121.088          -38.006        -121.088       -0.0385108         139.339
0.658                    -2.0887         127.713         -37.9095        -122.259         -37.9095        -122.259       -0.0389571         139.246
0.659                   -2.15753         125.787         -37.8115        -123.444         -37.8115        -123.444       -0.0394123         139.152
0.66                    -2.23001         123.819         -37.7121        -124.646         -37.7121        -124.646       -0.0398765         139.058
0.661                   -2.30631         121.808         -37.6113        -125.864         -37.6113        -125.864       -0.0403498         138.964
0.662                   -2.38664         119.751         -37.5094          -127.1         -37.5094          -127.1       -0.0408324         138.869
0.663                   -2.47116         117.648         -37.4064        -128.353         -37.4064        -128.353       -0.0413244         138.773
0.664                   -2.56008         115.496         -37.3025        -129.625         -37.3024        -129.625        -0.041826         138.677
0.665                    -2.6536         113.294         -37.1978        -130.915         -37.1978        -130.915       -0.0423373         138.581
0.666                   -2.75193          111.04         -37.0925        -132.225         -37.0925        -132.225       -0.0428586         138.484
0.667                   -2.85526         108.731         -36.9869        -133.555         -36.9869        -133.555       -0.0433899         138.387
0.668                   -2.96382         106.367         -36.8809        -134.904         -36.8809        -134.904       -0.0439316         138.289
0.669                    -3.0778         103.944          -36.775        -136.274          -36.775        -136.274       -0.0444839         138.191
0.67                    -3.19742         101.461         -36.6691        -137.665         -36.6691        -137.665       -0.0450468         138.093
0.671                   -3.32287         98.9155         -36.5636        -139.077         -36.5636        -139.077       -0.0456208         137.993
0.672                   -3.45436         96.3049         -36.4587        -140.509         -36.4587        -140.509       -0.0462059         137.894
0.673                   -3.59206         93.6269         -36.3545        -141.962         -36.3545        -141.962       -0.0468024         137.794
0.674                   -3.73614         90.8788         -36.2513        -143.437         -36.2513        -143.437       -0.0474106         137.693
0.675                   -3.88674          88.058         -36.1493        -144.931         -36.1493        -144.931       -0.0480307         137.592
0.676                   -4.04399         85.1616         -36.0488        -146.446         -36.0488        -146.446       -0.0486631          137.49
0.677                   -4.20799         82.1866         -35.9499        -147.981         -35.9499        -147.981       -0.0493078         137.388
0.678                   -4.37876           79.13         -35.8529        -149.535         -35.8529        -149.535       -0.0499654         137.285
0.679                   -4.55633         75.9885         -35.7581        -151.108          -35.758        -151.108        -0.050636         137.182
0.68                    -4.74062         72.7587         -35.6655        -152.699         -35.6655        -152.699       -0.0513199         137.078
0.681                   -4.93151         69.4371         -35.5756        -154.307         -35.5756        -154.307       -0.0520175         136.974
0.682                    -5.1288         66.0202         -35.4884         -155.93         -35.4884        -155.931       -0.0527292         136.869
0.683                   -5.33217         62.5041         -35.4043        -157.569         -35.4043        -157.569       -0.0534551         136.763
0.684                   -5.54123         58.8851         -35.3233        -159.221         -35.3233        -159.221       -0.0541957         136.657
0.685                   -5.75544         55.1595         -35.2456        -160.884         -35.2456        -160.884       -0.0549514          136.55
0.686                   -5.97411         51.3236         -35.1715        -162.559         -35.1715        -162.559       -0.0557225         136.442
0.687                   -6.19642         47.3737         -35.1011        -164.242          -35.101        -164.242       -0.0565093         136.334
0.688                   -6.42136         43.3068         -35.0344        -165.932         -35.0344        -165.932       -0.0573124         136.226
0.689                   -6.64776           39.12         -34.9716        -167.627         -34.9716        -167.627       -0.0581321         136.116
0.69                    -6.87422         34.8111         -34.9128        -169.326         -34.9128        -169.326       -0.0589689         136.006
0.691                   -7.09917          30.379          -34.858        -171.026          -34.858        -171.026       -0.0598231         135.895
0.692                   -7.32084         25.8236         -34.8073        -172.726         -34.8073        -172.726       -0.0606953         135.784
0.693                   -7.53728         21.1462         -34.7606        -174.423         -34.7606        -174.423       -0.0615859         135.672
0.694                   -7.74636         16.3499          -34.718        -176.116          -34.718        -176.116       -0.0624955         135.559
0.695                   -7.94587           11.44         -34.6794        -177.802         -34.6794        -177.802       -0.0634244         135.445
0.696                   -8.13353         6.42392         -34.6448         -179.48         -34.6448         -179.48       -0.0643733         135.331