! TOUCHSTONE file generated by CST MICROWAVE STUDIO
! Date and time: Fri Dec 11 14:14:16 2020
! Project name: Scenario_1_Planar_Body_Tissue_Out_of_Line_v2.cst
! Parameters = {dy1=86.5; L_HA=400; Ltissue=700; MT=2.54; Rad_Dielectric=30; Rad_Lower=7.3; Rad_Upper=30; Wtissue=700; a_HA=580; a_WG=246; b_HA=500; b_WG=121; c_HA=0; c_WG=187; d_feed=85; dx1=520; h_feed=15; h_lower=18; h_upper=40; hfat=3; hgap=25; hmuscle=50; hskin=1.5}
! Header version: 2018
! Port assignment regex: !\s*Touchstone port\s*([0-9]+)\s*=\s*(CST MWS port|CST DS port)\s*([0-9]+|Zmin|Zmax)\s*\(\"(.*)\"\)(\s*mode\s*([0-9]+))?.*
! Touchstone port assignment:
! Touchstone port 1 = CST MWS port 1 ("")
! Touchstone port 2 = CST MWS port 2 ("")
# GHz S DB R 50
0.5                   -0.0771526         -121.97         -61.6923        -51.2197         -61.6925        -51.2178      -0.00741151         151.147
0.501                 -0.0803502        -122.431         -61.4757        -52.1928         -61.4759         -52.191      -0.00747368         151.081
0.502                 -0.0837377        -122.896         -61.2551        -53.1818         -61.2553        -53.1802      -0.00753644         151.016
0.503                   -0.08733        -123.365         -61.0304        -54.1874         -61.0306        -54.1859      -0.00759982         150.951
0.504                 -0.0911439        -123.837         -60.8015        -55.2104         -60.8017        -55.2091      -0.00766384         150.885
0.505                 -0.0951977        -124.313         -60.5682        -56.2516         -60.5685        -56.2504      -0.00772849          150.82
0.506                 -0.0995115        -124.794         -60.3307        -57.3119         -60.3309        -57.3108      -0.00779382         150.754
0.507                  -0.104108        -125.279         -60.0887        -58.3923         -60.0889        -58.3912      -0.00785982         150.688
0.508                  -0.109012        -125.768         -59.8421        -59.4937         -59.8424        -59.4928      -0.00792654         150.622
0.509                   -0.11425        -126.262          -59.591        -60.6174         -59.5912        -60.6165      -0.00799398         150.557
0.51                   -0.119854         -126.76         -59.3352        -61.7645         -59.3354        -61.7637      -0.00806219         150.491
0.511                  -0.125856        -127.264         -59.0747        -62.9364         -59.0749        -62.9357      -0.00813118         150.424
0.512                  -0.132296        -127.772         -58.8093        -64.1345         -58.8094        -64.1338        -0.008201         150.358
0.513                  -0.139213        -128.285          -58.539        -65.3604         -58.5391        -65.3597      -0.00827168         150.292
0.514                  -0.146656        -128.804         -58.2637        -66.6156         -58.2638         -66.615      -0.00834327         150.226
0.515                  -0.154675        -129.329         -57.9834        -67.9021         -57.9835        -67.9015      -0.00841581         150.159
0.516                  -0.163328        -129.858         -57.6979        -69.2217         -57.6981        -69.2212      -0.00848936         150.093
0.517                   -0.17268        -130.394         -57.4074        -70.5767         -57.4075        -70.5762      -0.00856398         150.026
0.518                  -0.182801        -130.935         -57.1116        -71.9693         -57.1117        -71.9688      -0.00863974          149.96
0.519                  -0.193773        -131.483         -56.8106        -73.4021         -56.8107        -73.4016      -0.00871672         149.893
0.52                   -0.205683        -132.036         -56.5044        -74.8776         -56.5045        -74.8772      -0.00879502         149.826
0.521                  -0.218631        -132.596         -56.1929        -76.3989          -56.193        -76.3985      -0.00887472         149.759
0.522                  -0.232727        -133.162         -55.8763        -77.9691         -55.8763        -77.9687      -0.00895594         149.692
0.523                  -0.248093        -133.734         -55.5545        -79.5916         -55.5545        -79.5912      -0.00903882         149.625
0.524                  -0.264865        -134.312         -55.2276          -81.27         -55.2277        -81.2696       -0.0091235         149.558
0.525                  -0.283193        -134.896         -54.8959        -83.0083         -54.8959        -83.0079      -0.00921015          149.49
0.526                  -0.303241        -135.485         -54.5594        -84.8108         -54.5594        -84.8104      -0.00929895         149.423
0.527                   -0.32519         -136.08         -54.2184        -86.6818         -54.2184        -86.6814      -0.00939011         149.356
0.528                  -0.349237        -136.679         -53.8732        -88.6262         -53.8732        -88.6259      -0.00948386         149.288
0.529                  -0.375592        -137.283         -53.5243        -90.6491         -53.5243        -90.6487      -0.00958047          149.22
0.53                   -0.404481        -137.889          -53.172        -92.7556          -53.172        -92.7553      -0.00968021         149.152
0.531                  -0.436139        -138.496          -52.817        -94.9514         -52.8169        -94.9512      -0.00978339         149.084
0.532                  -0.470808        -139.104         -52.4599        -97.2421         -52.4599        -97.2419      -0.00989035         149.016
0.533                  -0.508727        -139.709         -52.1018        -99.6333         -52.1017        -99.6331       -0.0100014         148.948
0.534                  -0.550122         -140.31         -51.7435        -102.131         -51.7434        -102.131        -0.010117          148.88
0.535                  -0.595194        -140.903         -51.3863         -104.74         -51.3862         -104.74       -0.0102374         148.812
0.536                  -0.644094        -141.485         -51.0315        -107.465         -51.0314        -107.465        -0.010363         148.743
0.537                  -0.696903         -142.05         -50.6808        -110.312         -50.6807        -110.312       -0.0104942         148.675
0.538                  -0.753594        -142.595         -50.3359        -113.283         -50.3358        -113.283        -0.010631         148.606
0.539                  -0.814006        -143.114         -49.9989        -116.381         -49.9988        -116.381       -0.0107737         148.538
0.54                   -0.877794        -143.601         -49.6719        -119.606         -49.6718        -119.606       -0.0109224         148.469
0.541                  -0.944397         -144.05         -49.3574        -122.956         -49.3573        -122.956       -0.0110767           148.4
0.542                   -1.01301        -144.455         -49.0577        -126.428         -49.0576        -126.428       -0.0112364         148.331
0.543                   -1.08254        -144.811         -48.7754        -130.015         -48.7753        -130.015       -0.0114009         148.262
0.544                   -1.15167        -145.115          -48.513        -133.707         -48.5129        -133.707       -0.0115692         148.193
0.545                   -1.21881        -145.364         -48.2728        -137.491         -48.2727        -137.492       -0.0117403         148.124
0.546                   -1.28226        -145.559         -48.0568        -141.352         -48.0567        -141.353       -0.0119128         148.055
0.547                   -1.34026        -145.704         -47.8668        -145.271         -47.8667        -145.272       -0.0120854         147.985
0.548                   -1.39117        -145.804          -47.704        -149.228         -47.7039        -149.228       -0.0122566         147.916
0.549                   -1.43358         -145.87          -47.569          -153.2          -47.569          -153.2       -0.0124249         147.847
0.55                    -1.46647        -145.912          -47.462        -157.164          -47.462        -157.164        -0.012589         147.777
0.551                   -1.48928        -145.943         -47.3825        -161.098         -47.3825        -161.099       -0.0127479         147.708
0.552                   -1.50198        -145.977         -47.3293        -164.982         -47.3293        -164.982        -0.012901         147.638
0.553                   -1.50501        -146.027         -47.3008        -168.795         -47.3009        -168.795       -0.0130476         147.569
0.554                   -1.49919        -146.102         -47.2952        -172.522         -47.2952        -172.522       -0.0131878         147.499
0.555                   -1.48567        -146.212         -47.3102        -176.148         -47.3102        -176.148       -0.0133219         147.429
0.556                   -1.46574        -146.362         -47.3432        -179.662         -47.3432        -179.662       -0.0134501         147.359
0.557                   -1.44076        -146.557         -47.3917         176.941         -47.3917         176.942       -0.0135731         147.289
0.558                   -1.41205        -146.798         -47.4533         173.669         -47.4533         173.669       -0.0136917         147.219
0.559                    -1.3808        -147.086         -47.5255         170.522         -47.5255         170.522       -0.0138065         147.148
0.56                    -1.34808        -147.419         -47.6061           167.5         -47.6061         167.501       -0.0139185         147.078
0.561                   -1.31478        -147.794          -47.693         164.602         -47.6929         164.603       -0.0140283         147.007
0.562                   -1.28161         -148.21         -47.7842         161.825         -47.7842         161.826       -0.0141365         146.936
0.563                   -1.24917        -148.662         -47.8782         159.164         -47.8782         159.165       -0.0142439         146.865
0.564                   -1.21786        -149.148         -47.9735         156.615         -47.9734         156.616        -0.014351         146.794
0.565                   -1.18803        -149.665         -48.0687         154.172         -48.0686         154.172       -0.0144583         146.723
0.566                   -1.15988        -150.208         -48.1628         151.828         -48.1628         151.829       -0.0145662         146.651
0.567                   -1.13357        -150.777          -48.255         149.579         -48.2549          149.58       -0.0146749          146.58
0.568                   -1.10918        -151.369         -48.3443         147.419         -48.3442         147.419       -0.0147849         146.508
0.569                   -1.08675         -151.98         -48.4301         145.341           -48.43         145.341       -0.0148964         146.436
0.57                    -1.06629        -152.611          -48.512          143.34         -48.5119          143.34       -0.0150095         146.364
0.571                   -1.04778        -153.258         -48.5895         141.411         -48.5894         141.412       -0.0151244         146.292
0.572                   -1.03119         -153.92         -48.6622         139.549         -48.6621         139.549       -0.0152413         146.219
0.573                   -1.01647        -154.597         -48.7298         137.749         -48.7297         137.749       -0.0153602         146.147
0.574                   -1.00358        -155.287         -48.7922         136.006         -48.7921         136.006       -0.0154812         146.074
0.575                  -0.992452         -155.99         -48.8492         134.316         -48.8491         134.316       -0.0156045         146.001
0.576                  -0.983043        -156.704         -48.9007         132.675         -48.9005         132.675         -0.01573         145.928
0.577                  -0.975298         -157.43         -48.9465         131.079         -48.9463         131.079       -0.0158578         145.855
0.578                  -0.969169        -158.167         -48.9866         129.525         -48.9864         129.525        -0.015988         145.782
0.579                  -0.964611        -158.914          -49.021          128.01         -49.0208         128.009       -0.0161206         145.708
0.58                   -0.961585        -159.671         -49.0496         126.529         -49.0494         126.529       -0.0162555         145.635
0.581                  -0.960054        -160.439         -49.0725         125.081         -49.0724         125.081       -0.0163929         145.561
0.582                  -0.959991        -161.217         -49.0897         123.663         -49.0896         123.663       -0.0165327         145.487
0.583                   -0.96137        -162.004         -49.1012         122.272         -49.1011         122.272        -0.016675         145.413
0.584                  -0.964173        -162.801         -49.1071         120.906         -49.1069         120.906       -0.0168198         145.338
0.585                  -0.968388        -163.609         -49.1074         119.562         -49.1072         119.562       -0.0169671         145.264
0.586                  -0.974008        -164.426         -49.1021         118.239         -49.1019         118.238       -0.0171169         145.189
0.587                   -0.98103        -165.253         -49.0913         116.934         -49.0911         116.933       -0.0172692         145.115
0.588                  -0.989461        -166.091         -49.0751         115.645         -49.0749         115.644       -0.0174241          145.04
0.589                  -0.999308        -166.939         -49.0535         114.371         -49.0533          114.37       -0.0175816         144.964
0.59                    -1.01059        -167.798         -49.0265          113.11         -49.0264         113.109       -0.0177417         144.889
0.591                   -1.02332        -168.667         -48.9944          111.86         -48.9942         111.859       -0.0179044         144.814
0.592                   -1.03754        -169.547          -48.957          110.62         -48.9568         110.619       -0.0180698         144.738
0.593                   -1.05327        -170.439         -48.9145         109.387         -48.9144         109.386       -0.0182378         144.662
0.594                   -1.07056        -171.342         -48.8669         108.162         -48.8668         108.161       -0.0184086         144.586
0.595                   -1.08944        -172.256         -48.8144         106.941         -48.8143          106.94        -0.018582          144.51
0.596                   -1.10997        -173.183         -48.7569         105.725         -48.7568         105.723       -0.0187582         144.434
0.597                   -1.13221        -174.122         -48.6946          104.51         -48.6945         104.509       -0.0189373         144.357
0.598                   -1.15623        -175.074         -48.6275         103.298         -48.6274         103.296       -0.0191191          144.28
0.599                   -1.18208        -176.038         -48.5556         102.084         -48.5555         102.083       -0.0193038         144.203
0.6                     -1.20986        -177.015         -48.4791          100.87         -48.4791         100.869       -0.0194914         144.126
0.601                   -1.23964        -178.006         -48.3981         99.6531          -48.398         99.6517       -0.0196819         144.049
0.602                   -1.27153        -179.011         -48.3125         98.4323         -48.3125         98.4309       -0.0198753         143.971
0.603                   -1.30563          179.97         -48.2225         97.2065         -48.2225         97.2051       -0.0200718         143.894
0.604                   -1.34204         178.937         -48.1282         95.9745         -48.1282         95.9731       -0.0202714         143.816
0.605                   -1.38088          177.89         -48.0296         94.7352         -48.0296         94.7338        -0.020474         143.738
0.606                    -1.4223         176.827         -47.9268         93.4874         -47.9268          93.486       -0.0206798         143.659
0.607                   -1.46642         175.749         -47.8199         92.2299         -47.8199         92.2285       -0.0208888         143.581
0.608                   -1.51341         174.656          -47.709         90.9615          -47.709         90.9602        -0.021101         143.502
0.609                   -1.56343         173.546         -47.5942         89.6812         -47.5942         89.6799       -0.0213165         143.423
0.61                    -1.61665         172.421         -47.4756         88.3878         -47.4756         88.3864       -0.0215354         143.344
0.611                   -1.67326          171.28         -47.3533           87.08         -47.3533         87.0787       -0.0217577         143.264
0.612                   -1.73347         170.122         -47.2274         85.7569         -47.2273         85.7556       -0.0219834         143.185
0.613                    -1.7975         168.947          -47.098         84.4172         -47.0979         84.4159       -0.0222127         143.105
0.614                   -1.86558         167.757         -46.9652         83.0598         -46.9652         83.0586       -0.0224455         143.025
0.615                   -1.93797         166.549         -46.8292         81.6836         -46.8292         81.6824        -0.022682         142.945
0.616                   -2.01493         165.325         -46.6902         80.2875         -46.6902         80.2864       -0.0229222         142.864
0.617                   -2.09677         164.084         -46.5482         78.8705         -46.5482         78.8694       -0.0231662         142.783
0.618                   -2.18377         162.827         -46.4034         77.4314         -46.4034         77.4303        -0.023414         142.702
0.619                   -2.27628         161.553         -46.2561         75.9691         -46.2561         75.9681       -0.0236657         142.621
0.62                    -2.37466         160.265         -46.1063         74.4827         -46.1063         74.4817       -0.0239214          142.54
0.621                   -2.47926          158.96         -45.9543         72.9711         -45.9543         72.9702       -0.0241812         142.458
0.622                   -2.59051         157.642         -45.8003         71.4334         -45.8003         71.4326       -0.0244452         142.376
0.623                   -2.70881          156.31         -45.6445         69.8687         -45.6445         69.8679       -0.0247134         142.294
0.624                   -2.83463         154.965         -45.4872         68.2762         -45.4871         68.2754       -0.0249859         142.211
0.625                   -2.96845         153.609         -45.3285         66.6549         -45.3284         66.6542       -0.0252627         142.128
0.626                   -3.11077         152.243         -45.1687         65.0043         -45.1686         65.0036       -0.0255441         142.045
0.627                   -3.26213         150.869         -45.0081         63.3237          -45.008          63.323         -0.02583         141.962
0.628                   -3.42311         149.489          -44.847         61.6125         -44.8469         61.6119       -0.0261206         141.879
0.629                   -3.59429         148.106         -44.6857         59.8704         -44.6856         59.8697        -0.026416         141.795
0.63                    -3.77631         146.723         -44.5244         58.0969         -44.5243         58.0963       -0.0267162         141.711
0.631                   -3.96981         145.342         -44.3635         56.2921         -44.3635         56.2915       -0.0270214         141.626
0.632                    -4.1755         143.969         -44.2034         54.4557         -44.2033         54.4551       -0.0273316         141.542
0.633                   -4.39406         142.607         -44.0443          52.588         -44.0442         52.5874        -0.027647         141.457
0.634                   -4.62625         141.262         -43.8866         50.6892         -43.8865         50.6886       -0.0279676         141.372
0.635                   -4.87282          139.94         -43.7306         48.7599         -43.7305         48.7593       -0.0282936         141.286
0.636                   -5.13453         138.648         -43.5767         46.8006         -43.5765         46.8001       -0.0286251           141.2
0.637                   -5.41215         137.395         -43.4251         44.8124          -43.425         44.8118       -0.0289621         141.114
0.638                   -5.70647         136.188         -43.2763         42.7961         -43.2762         42.7955       -0.0293048         141.028
0.639                   -6.01823          135.04         -43.1306         40.7531         -43.1305         40.7525       -0.0296533         140.941
0.64                    -6.34815         133.962         -42.9883         38.6849         -42.9882         38.6843       -0.0300076         140.854
0.641                   -6.69686         132.968         -42.8496         36.5932         -42.8495         36.5925       -0.0303679         140.767
0.642                   -7.06493         132.075         -42.7149         34.4797         -42.7148          34.479       -0.0307343         140.679
0.643                   -7.45274           131.3         -42.5844         32.3466         -42.5843         32.3459       -0.0311069         140.591
0.644                   -7.86045         130.665         -42.4583          30.196         -42.4582         30.1953       -0.0314857         140.503
0.645                   -8.28792         130.194         -42.3369         28.0304         -42.3368         28.0297       -0.0318709         140.414
0.646                   -8.73454         129.914         -42.2202         25.8521         -42.2201         25.8514       -0.0322626         140.325
0.647                   -9.19911         129.857         -42.1085         23.6639         -42.1084         23.6632       -0.0326607         140.236
0.648                   -9.67957         130.055         -42.0018         21.4683         -42.0017         21.4676       -0.0330655         140.147
0.649                   -10.1728         130.547         -41.9002          19.268         -41.9001         19.2673       -0.0334769         140.057
0.65                     -10.674         131.373         -41.8036         17.0659         -41.8035         17.0652        -0.033895         139.966
0.651                   -11.1769         132.571         -41.7121         14.8646          -41.712         14.8639       -0.0343199         139.876
0.652                   -11.6726         134.179         -41.6257         12.6668         -41.6256         12.6661       -0.0347517         139.784
0.653                   -12.1498         136.224         -41.5441         10.4751          -41.544         10.4744       -0.0351903         139.693
0.654                   -12.5948         138.718         -41.4673         8.29196         -41.4672         8.29129       -0.0356359         139.601
0.655                   -12.9917         141.649         -41.3951         6.11984          -41.395         6.11918       -0.0360885         139.509
0.656                   -13.3239         144.973         -41.3273         3.96095         -41.3272         3.96031       -0.0365482         139.417
0.657                   -13.5759         148.607         -41.2637         1.81738         -41.2636         1.81676        -0.037015         139.324
0.658                    -13.736         152.435          -41.204       -0.308972          -41.204       -0.309568        -0.037489          139.23
0.659                   -13.7986         156.314         -41.1481        -2.41637          -41.148        -2.41694       -0.0379702         139.137
0.66                     -13.765         160.098         -41.0955        -4.50329         -41.0954        -4.50384       -0.0384588         139.042
0.661                   -13.6436         163.655          -41.046        -6.56839         -41.0459        -6.56891       -0.0389549         138.948
0.662                   -13.4476         166.883         -40.9993        -8.61053         -40.9992        -8.61103       -0.0394585         138.853
0.663                   -13.1929         169.715         -40.9551        -10.6288          -40.955        -10.6292       -0.0399698         138.757
0.664                   -12.8955         172.122         -40.9131        -12.6223          -40.913        -12.6228        -0.040489         138.662
0.665                   -12.5701         174.102          -40.873        -14.5906         -40.8729        -14.5911       -0.0410162         138.565
0.666                   -12.2289         175.674         -40.8344        -16.5333         -40.8343        -16.5337       -0.0415515         138.468
0.667                   -11.8817         176.869         -40.7971        -18.4501          -40.797        -18.4504       -0.0420953         138.371
0.668                   -11.5358         177.721         -40.7608        -20.3408         -40.7607        -20.3411       -0.0426477         138.274
0.669                   -11.1965          178.27         -40.7251        -22.2056         -40.7251        -22.2059        -0.043209         138.175
0.67                    -10.8676         178.551         -40.6899        -24.0446         -40.6899        -24.0448       -0.0437794         138.077
0.671                   -10.5515         178.596         -40.6549         -25.858         -40.6548        -25.8583       -0.0443591         137.978
0.672                   -10.2497         178.437         -40.6197        -27.6463         -40.6197        -27.6465       -0.0449485         137.878
0.673                    -9.9631         178.098         -40.5842          -29.41         -40.5842        -29.4102       -0.0455478         137.778
0.674                    -9.6919         177.604         -40.5481        -31.1495         -40.5481        -31.1496       -0.0461573         137.677
0.675                   -9.43617         176.973         -40.5112        -32.8655         -40.5112        -32.8656       -0.0467774         137.576
0.676                   -9.19565         176.223         -40.4733        -34.5587         -40.4733        -34.5588       -0.0474083         137.474
0.677                   -8.96995         175.369         -40.4343        -36.2298         -40.4343        -36.2299       -0.0480504         137.372
0.678                   -8.75859         174.422         -40.3938        -37.8796         -40.3938        -37.8796       -0.0487041         137.269
0.679                   -8.56102         173.394         -40.3518         -39.509         -40.3519        -39.5089       -0.0493695         137.166
0.68                    -8.37668         172.293         -40.3082        -41.1186         -40.3082        -41.1185       -0.0500472         137.062
0.681                   -8.20499         171.127         -40.2626        -42.7095         -40.2627        -42.7094       -0.0507374         136.958
0.682                   -8.04538         169.903         -40.2151        -44.2826         -40.2151        -44.2823       -0.0514405         136.853
0.683                   -7.89732         168.626         -40.1655        -45.8386         -40.1655        -45.8383       -0.0521568         136.747
0.684                   -7.76027         167.301         -40.1136        -47.3787         -40.1136        -47.3783       -0.0528868         136.641
0.685                   -7.63375         165.932         -40.0594        -48.9036         -40.0594        -48.9032       -0.0536308         136.534
0.686                   -7.51728         164.523         -40.0027        -50.4144         -40.0027        -50.4139       -0.0543892         136.426
0.687                   -7.41045         163.076         -39.9435        -51.9121         -39.9435        -51.9115       -0.0551624         136.318
0.688                   -7.31285         161.593         -39.8816        -53.3975         -39.8816        -53.3969       -0.0559508         136.209
0.689                    -7.2241         160.076          -39.817        -54.8717          -39.817         -54.871       -0.0567548           136.1
0.69                    -7.14388         158.528         -39.7496        -56.3357         -39.7496        -56.3349       -0.0575748         135.989
0.691                   -7.07187         156.949         -39.6793        -57.7905         -39.6794        -57.7896       -0.0584112         135.878
0.692                    -7.0078          155.34         -39.6061         -59.237         -39.6062         -59.236       -0.0592646         135.767
0.693                   -6.95141         153.702         -39.5299        -60.6762           -39.53        -60.6752       -0.0601354         135.655
0.694                   -6.90248         152.035         -39.4507        -62.1093         -39.4507        -62.1082        -0.061024         135.542
0.695                   -6.86081         150.341         -39.3684        -63.5371         -39.3684        -63.5361       -0.0619309         135.428
0.696                   -6.82621         148.618         -39.2829        -64.9608         -39.2829        -64.9597       -0.0628567         135.313