! TOUCHSTONE file generated by CST MICROWAVE STUDIO
! Date and time: Mon Nov 30 08:11:03 2020
! Project name: Scenario_1_Planar_Body_Tissue_Out_of_Line.cst
! Parameters = {dy1=86.5; L_HA=400; Ltissue=700; MT=2.54; Rad_Dielectric=30; Rad_Lower=7.3; Rad_Upper=30; Wtissue=700; a_HA=580; a_WG=246; b_HA=500; b_WG=121; c_HA=0; c_WG=187; d_feed=85; dx1=866; h_feed=15; h_lower=18; h_upper=40; hfat=3; hgap=25; hmuscle=50; hskin=1.5}
! Header version: 2018
! Port assignment regex: !\s*Touchstone port\s*([0-9]+)\s*=\s*(CST MWS port|CST DS port)\s*([0-9]+|Zmin|Zmax)\s*\(\"(.*)\"\)(\s*mode\s*([0-9]+))?.*
! Touchstone port assignment:
! Touchstone port 1 = CST MWS port 1 ("")
! Touchstone port 2 = CST MWS port 2 ("")
# GHz S DB R 50
0.5                    -0.101661        -122.151         -63.6758         104.733         -63.6756         104.738      -0.00748249         151.157
0.501                  -0.109955        -122.534         -63.8129         105.024         -63.8136         105.016       -0.0075618         151.092
0.502                   -0.11818         -122.92         -63.9583         105.344         -63.9599          105.32      -0.00764143         151.026
0.503                   -0.12634        -123.309         -64.1127         105.692         -64.1152         105.653      -0.00772141         150.961
0.504                  -0.134434        -123.699         -64.2768         106.073         -64.2803         106.017      -0.00780172         150.896
0.505                  -0.142466        -124.092         -64.4514         106.489         -64.4558         106.414      -0.00788239          150.83
0.506                  -0.150437        -124.487         -64.6373         106.942         -64.6427         106.848      -0.00796341         150.765
0.507                  -0.158348        -124.884         -64.8355         107.437          -64.842         107.322       -0.0080448         150.699
0.508                  -0.166202        -125.284         -65.0471         107.977         -65.0546          107.84      -0.00812656         150.633
0.509                     -0.174        -125.686         -65.2732         108.567         -65.2818         108.405      -0.00820869         150.568
0.51                   -0.181746        -126.091         -65.5152         109.212         -65.5249         109.024       -0.0082912         150.502
0.511                   -0.18944        -126.499         -65.7745         109.918         -65.7854         109.701      -0.00837411         150.436
0.512                  -0.197085        -126.909         -66.0529         110.692          -66.065         110.445      -0.00845741          150.37
0.513                  -0.204684        -127.321         -66.3523         111.544         -66.3656         111.263      -0.00854112         150.304
0.514                  -0.212238        -127.736         -66.6746         112.483         -66.6894         112.165      -0.00862524         150.238
0.515                  -0.219751        -128.154         -67.0225         113.523         -67.0389         113.164      -0.00870978         150.171
0.516                  -0.227224        -128.575         -67.3985         114.679         -67.4167         114.275      -0.00879476         150.105
0.517                  -0.234661        -128.999         -67.8059         115.969         -67.8262         115.516      -0.00888017         150.039
0.518                  -0.242065        -129.425         -68.2482          117.42          -68.271         116.912      -0.00896602         149.972
0.519                  -0.249438        -129.855         -68.7295         119.062         -68.7552         118.491      -0.00905234         149.906
0.52                   -0.256783        -130.287         -69.2543         120.934         -69.2837         120.294      -0.00913911         149.839
0.521                  -0.264104        -130.723         -69.8277         123.092         -69.8619         122.372      -0.00922637         149.772
0.522                  -0.271404        -131.162         -70.4552         125.604         -70.4956         124.795       -0.0093141         149.705
0.523                  -0.278686        -131.604         -71.1422         128.566         -71.1911         127.655      -0.00940233         149.638
0.524                  -0.285955        -132.049         -71.8935         132.109         -71.9541         131.082      -0.00949106         149.571
0.525                  -0.293214        -132.497         -72.7111         136.412         -72.7882         135.257      -0.00958031         149.504
0.526                  -0.300467        -132.949         -73.5909         141.719         -73.6916         140.428      -0.00967008         149.437
0.527                  -0.307719        -133.404         -74.5148         148.355         -74.6493         146.933      -0.00976039          149.37
0.528                  -0.314973        -133.863         -75.4378          156.71         -75.6196         155.197      -0.00985124         149.302
0.529                  -0.322236        -134.326         -76.2689         167.144         -76.5122         165.644      -0.00994266         149.235
0.53                    -0.32951        -134.792         -76.8611         179.722         -77.1717         178.425       -0.0100346         149.167
0.531                  -0.336803        -135.261         -77.0458        -166.172         -77.4083        -167.043       -0.0101272           149.1
0.532                  -0.344119        -135.735         -76.7328        -151.903         -77.1101         -152.23       -0.0102204         149.032
0.533                  -0.351464        -136.212         -75.9851        -138.926         -76.3397        -138.775       -0.0103141         148.964
0.534                  -0.358844        -136.694         -74.9655        -128.019          -75.278        -127.555       -0.0104085         148.896
0.535                  -0.366265        -137.179         -73.8308        -119.222         -74.0986        -118.597       -0.0105036         148.828
0.536                  -0.373735        -137.669         -72.6831        -112.207         -72.9116        -111.523       -0.0105992          148.76
0.537                  -0.381261        -138.163         -71.5753        -106.579         -71.7717        -105.893       -0.0106956         148.692
0.538                  -0.388849        -138.661           -70.53            -102         -70.7005        -101.342       -0.0107926         148.623
0.539                  -0.396509        -139.164         -69.5535        -98.2127         -69.7034         -97.596       -0.0108903         148.555
0.54                   -0.404248        -139.671         -68.6449         -95.028         -68.7781        -94.4581       -0.0109887         148.486
0.541                  -0.412076        -140.183         -67.8002        -92.3094         -67.9197        -91.7872       -0.0110879         148.418
0.542                  -0.420002          -140.7         -67.0141        -89.9579         -67.1221        -89.4823       -0.0111877         148.349
0.543                  -0.428036        -141.221         -66.2813        -87.9012         -66.3796        -87.4698       -0.0112884          148.28
0.544                  -0.436189        -141.748         -65.5968        -86.0861         -65.6868         -85.696       -0.0113898         148.211
0.545                  -0.444473        -142.279          -64.956        -84.4725         -65.0387        -84.1209        -0.011492         148.142
0.546                  -0.452899        -142.816          -64.355        -83.0305         -64.4311        -82.7144        -0.011595         148.073
0.547                  -0.461481        -143.358         -63.7901        -81.7372         -63.8603        -81.4539       -0.0116989         148.004
0.548                  -0.470232        -143.905          -63.258        -80.5752         -63.3229        -80.3218       -0.0118036         147.934
0.549                  -0.479168        -144.458          -62.756        -79.5308          -62.816         -79.305       -0.0119091         147.865
0.55                   -0.488302        -145.017         -62.2814        -78.5936         -62.3369         -78.393       -0.0120156         147.795
0.551                  -0.497653        -145.581         -61.8321        -77.7554         -61.8834        -77.5777       -0.0121229         147.725
0.552                  -0.507239        -146.152         -61.4059        -77.0097         -61.4533        -76.8528       -0.0122312         147.655
0.553                  -0.517077        -146.729          -61.001        -76.3513         -61.0447        -76.2134       -0.0123405         147.585
0.554                  -0.527189        -147.312         -60.6157        -75.7763         -60.6559        -75.6555       -0.0124507         147.515
0.555                  -0.537596        -147.901         -60.2485        -75.2813         -60.2854         -75.176        -0.012562         147.445
0.556                  -0.548322        -148.497         -59.8979        -74.8638         -59.9317        -74.7723       -0.0126742         147.375
0.557                  -0.559391          -149.1         -59.5626        -74.5215         -59.5935        -74.4426       -0.0127875         147.304
0.558                  -0.570832         -149.71         -59.2414        -74.2529         -59.2696        -74.1851       -0.0129019         147.234
0.559                  -0.582671        -150.327         -58.9332        -74.0563         -58.9588        -73.9985       -0.0130174         147.163
0.56                   -0.594941        -150.951          -58.637        -73.9307           -58.66        -73.8816       -0.0131341         147.092
0.561                  -0.607675        -151.583         -58.3516        -73.8749         -58.3724        -73.8336       -0.0132519         147.021
0.562                  -0.620908        -152.223         -58.0764         -73.888         -58.0949        -73.8535       -0.0133709          146.95
0.563                  -0.634679         -152.87         -57.8103        -73.9693         -57.8268        -73.9408       -0.0134911         146.879
0.564                  -0.649029        -153.526         -57.5526        -74.1179         -57.5671        -74.0946       -0.0136126         146.807
0.565                  -0.664003         -154.19         -57.3025        -74.3334         -57.3152        -74.3145       -0.0137353         146.736
0.566                   -0.67965        -154.862         -57.0594         -74.615         -57.0704        -74.5999       -0.0138594         146.664
0.567                  -0.696022        -155.543         -56.8225        -74.9622         -56.8319        -74.9503       -0.0139849         146.592
0.568                  -0.713174        -156.233         -56.5913        -75.3745         -56.5993        -75.3653       -0.0141118         146.521
0.569                  -0.731168        -156.933         -56.3652        -75.8514         -56.3718        -75.8444       -0.0142401         146.449
0.57                   -0.750069        -157.642         -56.1437        -76.3925          -56.149        -76.3873       -0.0143699         146.376
0.571                  -0.769948         -158.36         -55.9262        -76.9972         -55.9303        -76.9935       -0.0145012         146.304
0.572                  -0.790883        -159.088         -55.7123        -77.6652         -55.7153        -77.6626        -0.014634         146.232
0.573                  -0.812956        -159.826         -55.5015        -78.3961         -55.5035        -78.3944       -0.0147685         146.159
0.574                  -0.836258        -160.575         -55.2935        -79.1895         -55.2945        -79.1884       -0.0149047         146.086
0.575                  -0.860887        -161.334         -55.0878        -80.0451          -55.088        -80.0445       -0.0150425         146.013
0.576                  -0.886949        -162.104         -54.8841        -80.9625         -54.8836        -80.9622       -0.0151821          145.94
0.577                  -0.914558        -162.884         -54.6821        -81.9415          -54.681        -81.9414       -0.0153235         145.867
0.578                   -0.94384        -163.676         -54.4816        -82.9818         -54.4798        -82.9817       -0.0154668         145.794
0.579                  -0.974929        -164.479         -54.2822        -84.0831         -54.2799         -84.083        -0.015612          145.72
0.58                    -1.00797        -165.293         -54.0837        -85.2453         -54.0809         -85.245       -0.0157592         145.646
0.581                   -1.04313        -166.118         -53.8859         -86.468         -53.8827        -86.4676       -0.0159084         145.573
0.582                   -1.08056        -166.954         -53.6887        -87.7512         -53.6851        -87.7506       -0.0160597         145.499
0.583                   -1.12047        -167.802         -53.4918        -89.0946         -53.4879        -89.0938       -0.0162132         145.424
0.584                   -1.16305        -168.661         -53.2951        -90.4981          -53.291        -90.4971        -0.016369          145.35
0.585                   -1.20851        -169.531         -53.0986        -91.9616         -53.0943        -91.9604        -0.016527         145.276
0.586                   -1.25709        -170.411         -52.9021        -93.4848         -52.8977        -93.4834       -0.0166874         145.201
0.587                   -1.30904        -171.302         -52.7057        -95.0678         -52.7012        -95.0662       -0.0168503         145.126
0.588                   -1.36462        -172.202         -52.5093        -96.7102         -52.5046        -96.7085       -0.0170157         145.051
0.589                   -1.42413         -173.11         -52.3128         -98.412         -52.3082        -98.4102       -0.0171838         144.976
0.59                    -1.48786        -174.027         -52.1164        -100.173         -52.1117        -100.171       -0.0173545         144.901
0.591                   -1.55615         -174.95         -51.9201        -101.993         -51.9154        -101.991        -0.017528         144.825
0.592                   -1.62931        -175.879         -51.7239        -103.872         -51.7194         -103.87       -0.0177044         144.749
0.593                   -1.70771         -176.81         -51.5281        -105.809         -51.5236        -105.807       -0.0178837         144.674
0.594                   -1.79171        -177.743         -51.3327        -107.804         -51.3283        -107.802        -0.018066         144.597
0.595                   -1.88166        -178.674         -51.1379        -109.857         -51.1337        -109.855       -0.0182514         144.521
0.596                   -1.97795        -179.601         -50.9439        -111.967         -50.9398        -111.966       -0.0184401         144.445
0.597                   -2.08092          179.48          -50.751        -114.134         -50.7471        -114.132        -0.018632         144.368
0.598                   -2.19091         178.574         -50.5593        -116.356         -50.5556        -116.355       -0.0188273         144.291
0.599                   -2.30822         177.686         -50.3692        -118.633         -50.3657        -118.632        -0.019026         144.215
0.6                     -2.43309          176.82          -50.181        -120.963         -50.1777        -120.963       -0.0192282         144.137
0.601                   -2.56568         175.984         -49.9949        -123.347         -49.9919        -123.346       -0.0194341          144.06
0.602                   -2.70607         175.185         -49.8114        -125.781         -49.8085         -125.78       -0.0196436         143.982
0.603                   -2.85417          174.43         -49.6306        -128.264          -49.628        -128.264       -0.0198568         143.905
0.604                   -3.00974         173.729         -49.4531        -130.795         -49.4507        -130.795       -0.0200737         143.827
0.605                   -3.17231         173.091         -49.2791        -133.372         -49.2769        -133.372       -0.0202945         143.749
0.606                   -3.34117         172.525         -49.1089        -135.991          -49.107        -135.991       -0.0205191          143.67
0.607                    -3.5153         172.041          -48.943        -138.651         -48.9413        -138.651       -0.0207476         143.592
0.608                   -3.69332         171.649         -48.7817        -141.349         -48.7802        -141.349         -0.02098         143.513
0.609                   -3.87352         171.359         -48.6252        -144.081         -48.6239        -144.081       -0.0212163         143.434
0.61                    -4.05377         171.177         -48.4738        -146.845         -48.4728        -146.845       -0.0214564         143.355
0.611                   -4.23159          171.11         -48.3279        -149.636         -48.3271        -149.636       -0.0217004         143.276
0.612                   -4.40415         171.159         -48.1877        -152.452          -48.187        -152.452       -0.0219483         143.196
0.613                    -4.5684         171.325         -48.0532        -155.288         -48.0528        -155.288       -0.0221999         143.116
0.614                   -4.72114         171.602         -47.9248        -158.141         -47.9245        -158.141       -0.0224553         143.036
0.615                   -4.85921         171.981         -47.8025        -161.006         -47.8023        -161.006       -0.0227144         142.956
0.616                    -4.9797         172.447         -47.6862         -163.88         -47.6862         -163.88       -0.0229771         142.875
0.617                    -5.0801         172.981         -47.5762        -166.759         -47.5763        -166.758       -0.0232434         142.795
0.618                   -5.15856         173.561         -47.4722        -169.638         -47.4724        -169.637       -0.0235131         142.714
0.619                   -5.21396         174.162         -47.3742        -172.514         -47.3745        -172.513       -0.0237863         142.633
0.62                    -5.24603         174.758          -47.282        -175.383         -47.2824        -175.383       -0.0240628         142.551
0.621                   -5.25535         175.323         -47.1955        -178.242          -47.196        -178.241       -0.0243426          142.47
0.622                   -5.24326         175.835         -47.1145         178.912          -47.115         178.914       -0.0246256         142.388
0.623                   -5.21173         176.274         -47.0386         176.084         -47.0391         176.085       -0.0249118         142.306
0.624                   -5.16318         176.622         -46.9675         173.275         -46.9681         173.276       -0.0252012         142.224
0.625                    -5.1003         176.867          -46.901         170.488         -46.9016          170.49       -0.0254937         142.141
0.626                   -5.02589         177.003         -46.8387         167.725         -46.8392         167.727       -0.0257893         142.058
0.627                   -4.94267         177.024         -46.7801         164.989         -46.7807         164.991        -0.026088         141.975
0.628                    -4.8532          176.93          -46.725         162.281         -46.7256         162.283       -0.0263899         141.892
0.629                   -4.75982         176.722          -46.673         159.602         -46.6735         159.604       -0.0266949         141.808
0.63                    -4.66457         176.403         -46.6235         156.953          -46.624         156.955       -0.0270033         141.724
0.631                    -4.5692          175.98         -46.5764         154.336         -46.5768         154.337       -0.0273149          141.64
0.632                   -4.47518         175.457         -46.5311         151.749         -46.5315         151.751         -0.02763         141.556
0.633                   -4.38371          174.84         -46.4873         149.195         -46.4876         149.197       -0.0279485         141.471
0.634                   -4.29576         174.137         -46.4446         146.673         -46.4449         146.674       -0.0282707         141.386
0.635                   -4.21208         173.353         -46.4027         144.182         -46.4029         144.183       -0.0285967         141.301
0.636                   -4.13326         172.495         -46.3612         141.722         -46.3614         141.723       -0.0289266         141.215
0.637                   -4.05973         171.567         -46.3198         139.293           -46.32         139.294       -0.0292606         141.129
0.638                   -3.99183         170.574         -46.2782         136.893         -46.2783         136.894       -0.0295987         141.043
0.639                   -3.92978         169.522         -46.2361         134.523         -46.2362         134.523       -0.0299413         140.956
0.64                    -3.87375         168.414         -46.1933          132.18         -46.1933         132.181       -0.0302884          140.87
0.641                   -3.82385         167.254         -46.1494         129.864         -46.1494         129.864       -0.0306403         140.782
0.642                   -3.78015         166.045         -46.1044         127.574         -46.1043         127.574       -0.0309971         140.695
0.643                   -3.74269         164.789         -46.0578         125.307         -46.0578         125.307        -0.031359         140.607
0.644                   -3.71152         163.488         -46.0097         123.063         -46.0096         123.063       -0.0317262         140.519
0.645                   -3.68665         162.145         -45.9597         120.841         -45.9595          120.84       -0.0320989         140.431
0.646                   -3.66813         160.761         -45.9077         118.638         -45.9075         118.637       -0.0324773         140.342
0.647                   -3.65598         159.337         -45.8536         116.452         -45.8535         116.451       -0.0328616         140.253
0.648                   -3.65025         157.875         -45.7973         114.283         -45.7971         114.282       -0.0332519         140.163
0.649                   -3.65101         156.374         -45.7387         112.129         -45.7385         112.127       -0.0336485         140.073
0.65                    -3.65835         154.835         -45.6776         109.987         -45.6774         109.986       -0.0340516         139.983
0.651                   -3.67236         153.258         -45.6141         107.857         -45.6139         107.855       -0.0344614         139.892
0.652                   -3.69319         151.645          -45.548         105.736         -45.5478         105.734        -0.034878         139.801
0.653                   -3.72099         149.993         -45.4794         103.622         -45.4791          103.62       -0.0353017          139.71
0.654                   -3.75595         148.304         -45.4081         101.514         -45.4079         101.512       -0.0357326         139.618
0.655                   -3.79829         146.576         -45.3343         99.4097         -45.3341         99.4075        -0.036171         139.526
0.656                   -3.84826          144.81         -45.2579         97.3075         -45.2577         97.3052       -0.0366171         139.434
0.657                   -3.90617         143.005          -45.179         95.2054         -45.1788         95.2031        -0.037071         139.341
0.658                   -3.97234         141.159         -45.0977         93.1017         -45.0974         93.0995       -0.0375329         139.247
0.659                   -4.04714         139.274         -45.0139         90.9945         -45.0137         90.9923       -0.0380031         139.154
0.66                    -4.13099         137.346         -44.9278         88.8821         -44.9277           88.88       -0.0384818         139.059
0.661                   -4.22436         135.377         -44.8396         86.7627         -44.8394         86.7607       -0.0389691         138.965
0.662                   -4.32776         133.365         -44.7493         84.6346         -44.7492         84.6326       -0.0394653          138.87
0.663                   -4.44176         131.309         -44.6572         82.4961         -44.6571         82.4942       -0.0399706         138.774
0.664                   -4.56698         129.209         -44.5633         80.3456         -44.5632         80.3439       -0.0404852         138.679
0.665                   -4.70411         127.063          -44.468         78.1816         -44.4679           78.18       -0.0410093         138.582
0.666                   -4.85392          124.87         -44.3714         76.0026         -44.3713         76.0012       -0.0415431         138.486
0.667                   -5.01722          122.63         -44.2738         73.8074         -44.2737         73.8062       -0.0420869         138.388
0.668                   -5.19493         120.343         -44.1754         71.5946         -44.1754         71.5936       -0.0426408         138.291
0.669                   -5.38802         118.006         -44.0766         69.3634         -44.0766         69.3625       -0.0432052         138.192
0.67                    -5.59761          115.62         -43.9777         67.1126         -43.9777          67.112       -0.0437802         138.094
0.671                   -5.82486         113.183          -43.879         64.8418         -43.8789         64.8414        -0.044366         137.995
0.672                   -6.07109         110.695         -43.7808         62.5503         -43.7807         62.5501        -0.044963         137.895
0.673                   -6.33773         108.155         -43.6835         60.2379         -43.6835         60.2379       -0.0455714         137.795
0.674                   -6.62637         105.563         -43.5875         57.9046         -43.5875         57.9048       -0.0461913         137.694
0.675                   -6.93877         102.916         -43.4932         55.5506         -43.4932          55.551       -0.0468232         137.593
0.676                   -7.27687         100.215         -43.4009         53.1765         -43.4009          53.177       -0.0474671         137.491
0.677                   -7.64286         97.4575         -43.3111         50.7831         -43.3111         50.7838       -0.0481235         137.389
0.678                    -8.0392         94.6419         -43.2241         48.3716         -43.2241         48.3724       -0.0487926         137.286
0.679                   -8.46867          91.766         -43.1404         45.9433         -43.1403         45.9443       -0.0494746         137.183
0.68                    -8.93449         88.8265         -43.0601         43.5002         -43.0601         43.5013       -0.0501699         137.079
0.681                   -9.44036         85.8191         -42.9837         41.0441         -42.9837         41.0453       -0.0508788         136.975
0.682                   -9.99062          82.738         -42.9115         38.5776         -42.9114         38.5788       -0.0516015          136.87
0.683                   -10.5904         79.5748         -42.8436         36.1031         -42.8435         36.1043       -0.0523384         136.764
0.684                    -11.246         76.3179         -42.7804         33.6234         -42.7803         33.6247       -0.0530898         136.658
0.685                   -11.9649         72.9508         -42.7219         31.1416         -42.7218         31.1429        -0.053856         136.551
0.686                   -12.7566         69.4501         -42.6682         28.6609         -42.6682         28.6622       -0.0546374         136.443
0.687                   -13.6331          65.781         -42.6195         26.1845         -42.6194         26.1857       -0.0554343         136.335
0.688                     -14.61         61.8922         -42.5757         23.7156         -42.5756         23.7168       -0.0562471         136.227
0.689                   -15.7078          57.704         -42.5367         21.2576         -42.5366         21.2587       -0.0570761         136.117
0.69                    -16.9543         53.0893         -42.5023         18.8136         -42.5023         18.8148       -0.0579218         136.007
0.691                   -18.3881         47.8339         -42.4725         16.3869         -42.4725          16.388       -0.0587845         135.896
0.692                    -20.063         41.5544          -42.447         13.9804          -42.447         13.9813       -0.0596646         135.785
0.693                   -22.0522         33.5089         -42.4255         11.5967         -42.4254         11.5976       -0.0605626         135.673
0.694                   -24.4345         22.1361         -42.4076         9.23848         -42.4076         9.23933        -0.061479          135.56
0.695                   -27.1621         4.02964         -42.3931         6.90793         -42.3931         6.90871        -0.062414         135.446
0.696                    -29.401        -26.0629         -42.3815         4.60702         -42.3815         4.60774       -0.0633683         135.332