! TOUCHSTONE file generated by CST MICROWAVE STUDIO
! Date and time: Mon Nov 30 09:10:06 2020
! Project name: Scenario_1_Planar_Body_Tissue_Out_of_Line_v2.cst
! Parameters = {dy1=103.8; L_HA=400; Ltissue=700; MT=2.54; Rad_Dielectric=30; Rad_Lower=7.3; Rad_Upper=30; Wtissue=700; a_HA=580; a_WG=246; b_HA=500; b_WG=121; c_HA=0; c_WG=187; d_feed=85; dx1=346; h_feed=15; h_lower=18; h_upper=40; hfat=3; hgap=25; hmuscle=50; hskin=1.5}
! Header version: 2018
! Port assignment regex: !\s*Touchstone port\s*([0-9]+)\s*=\s*(CST MWS port|CST DS port)\s*([0-9]+|Zmin|Zmax)\s*\(\"(.*)\"\)(\s*mode\s*([0-9]+))?.*
! Touchstone port assignment:
! Touchstone port 1 = CST MWS port 1 ("")
! Touchstone port 2 = CST MWS port 2 ("")
# GHz S DB R 50
0.5                    -0.281701        -121.783         -55.6816         30.5357         -55.6816         30.5359      -0.00811662         151.151
0.501                  -0.282924        -122.166         -55.7795         29.5185         -55.7794         29.5225       -0.0081787         151.086
0.502                   -0.28414        -122.552         -55.8762         28.4626          -55.876         28.4703      -0.00824101         151.021
0.503                  -0.285351         -122.94         -55.9713         27.3672          -55.971         27.3786      -0.00830355         150.956
0.504                   -0.28656        -123.332         -56.0645         26.2318         -56.0643         26.2468      -0.00836635          150.89
0.505                  -0.287767        -123.726         -56.1556         25.0557         -56.1554         25.0744      -0.00842941         150.825
0.506                  -0.288976        -124.124         -56.2443         23.8387         -56.2441          23.861      -0.00849276          150.76
0.507                  -0.290189        -124.524         -56.3301         22.5805         -56.3301         22.6062      -0.00855639         150.694
0.508                  -0.291408        -124.928         -56.4128          21.281         -56.4129         21.3099      -0.00862034         150.629
0.509                  -0.292635        -125.335         -56.4921           19.94         -56.4923         19.9722      -0.00868461         150.563
0.51                   -0.293873        -125.745         -56.5674          18.558         -56.5679         18.5932      -0.00874921         150.497
0.511                  -0.295126        -126.158         -56.6385         17.1352         -56.6392         17.1732      -0.00881417         150.432
0.512                  -0.296394        -126.574          -56.705         15.6723          -56.706         15.7129       -0.0088795         150.366
0.513                  -0.297682        -126.994         -56.7665           14.17         -56.7677         14.2131      -0.00894521           150.3
0.514                  -0.298992        -127.417         -56.8226         12.6294         -56.8242         12.6746      -0.00901133         150.234
0.515                  -0.300327        -127.844          -56.873         11.0517         -56.8748         11.0989      -0.00907785         150.167
0.516                   -0.30169        -128.274         -56.9171         9.43837         -56.9193         9.48728      -0.00914481         150.101
0.517                  -0.303085        -128.707         -56.9548         7.79121         -56.9573         7.84153      -0.00921222         150.035
0.518                  -0.304515        -129.144         -56.9856         6.11213         -56.9885         6.16358      -0.00928009         149.969
0.519                  -0.305983        -129.584         -57.0092         4.40334         -57.0125         4.45562      -0.00934844         149.902
0.52                   -0.307494        -130.029         -57.0254         2.66723          -57.029         2.72004      -0.00941729         149.835
0.521                   -0.30905        -130.477         -57.0337        0.906393         -57.0378        0.959445      -0.00948665         149.769
0.522                  -0.310656        -130.928         -57.0342        -0.87639         -57.0386         -0.8234      -0.00955654         149.702
0.523                  -0.312317        -131.384         -57.0264         -2.6782         -57.0312        -2.62556      -0.00962698         149.635
0.524                  -0.314035        -131.843         -57.0103        -4.49599         -57.0154        -4.44399      -0.00969799         149.568
0.525                  -0.315817        -132.307         -56.9857        -6.32664         -56.9912        -6.27554      -0.00976958         149.501
0.526                  -0.317666        -132.774         -56.9527        -8.16697         -56.9585        -8.11703      -0.00984177         149.434
0.527                  -0.319587        -133.246         -56.9111        -10.0138         -56.9172        -9.96522      -0.00991459         149.367
0.528                  -0.321586        -133.721          -56.861        -11.8639         -56.8673        -11.8169      -0.00998805         149.299
0.529                  -0.323668        -134.201         -56.8025        -13.7142          -56.809        -13.6691       -0.0100622         149.232
0.53                   -0.325838        -134.685         -56.7356        -15.5618         -56.7423        -15.5185        -0.010137         149.164
0.531                  -0.328103        -135.174         -56.6606        -17.4036         -56.6675        -17.3624       -0.0102124         149.097
0.532                  -0.330468        -135.667         -56.5776         -19.237         -56.5846         -19.198       -0.0102887         149.029
0.533                   -0.33294        -136.164         -56.4868        -21.0594         -56.4939        -21.0227       -0.0103656         148.961
0.534                  -0.335526        -136.666         -56.3885        -22.8685         -56.3957        -22.8341       -0.0104433         148.893
0.535                  -0.338232        -137.173          -56.283        -24.6622         -56.2902        -24.6302       -0.0105218         148.825
0.536                  -0.341067        -137.685         -56.1706        -26.4385         -56.1777        -26.4088       -0.0106011         148.757
0.537                  -0.344038        -138.202         -56.0516        -28.1958         -56.0586        -28.1685       -0.0106812         148.689
0.538                  -0.347153        -138.723         -55.9263        -29.9327         -55.9332        -29.9077       -0.0107621         148.621
0.539                   -0.35042         -139.25          -55.795         -31.648         -55.8018        -31.6252       -0.0108439         148.552
0.54                    -0.35385        -139.781         -55.6581        -33.3408         -55.6648        -33.3201       -0.0109266         148.484
0.541                  -0.357452        -140.318         -55.5159        -35.0102         -55.5224        -34.9917       -0.0110103         148.415
0.542                  -0.361235        -140.861         -55.3688        -36.6559         -55.3751        -36.6393       -0.0110948         148.346
0.543                   -0.36521        -141.409          -55.217        -38.2774         -55.2231        -38.2627       -0.0111803         148.277
0.544                  -0.369389        -141.962          -55.061        -39.8747         -55.0668        -39.8618       -0.0112668         148.208
0.545                  -0.373784        -142.522         -54.9009        -41.4478         -54.9065        -41.4366       -0.0113543         148.139
0.546                  -0.378406        -143.087         -54.7371        -42.9969         -54.7424        -42.9872       -0.0114428          148.07
0.547                   -0.38327        -143.658         -54.5699        -44.5224         -54.5749        -44.5141       -0.0115324         148.001
0.548                   -0.38839        -144.235         -54.3995        -46.0247         -54.4042        -46.0176       -0.0116231         147.931
0.549                  -0.393779        -144.819         -54.2262        -47.5043         -54.2306        -47.4985       -0.0117149         147.862
0.55                   -0.399455        -145.408         -54.0502         -48.962         -54.0543        -48.9572       -0.0118078         147.792
0.551                  -0.405433        -146.005         -53.8717        -50.3986         -53.8755        -50.3947       -0.0119019         147.722
0.552                  -0.411732        -146.608         -53.6909        -51.8148         -53.6944        -51.8118       -0.0119971         147.652
0.553                   -0.41837        -147.218          -53.508        -53.2116         -53.5112        -53.2092       -0.0120936         147.582
0.554                  -0.425368        -147.835         -53.3232        -54.5898          -53.326        -54.5881       -0.0121914         147.512
0.555                  -0.432746        -148.459         -53.1366        -55.9506         -53.1391        -55.9494       -0.0122904         147.442
0.556                  -0.440528         -149.09         -52.9483        -57.2948         -52.9506         -57.294       -0.0123907         147.371
0.557                  -0.448737        -149.729         -52.7586        -58.6235         -52.7605        -58.6231       -0.0124924         147.301
0.558                  -0.457399        -150.376         -52.5674        -59.9379          -52.569        -59.9377       -0.0125955          147.23
0.559                  -0.466541         -151.03         -52.3749         -61.239         -52.3762         -61.239       -0.0126999         147.159
0.56                   -0.476194        -151.693         -52.1812        -62.5278         -52.1822        -62.5279       -0.0128058         147.089
0.561                  -0.486387        -152.364         -51.9863        -63.8055         -51.9871        -63.8056       -0.0129132         147.018
0.562                  -0.497155        -153.043         -51.7904        -65.0731         -51.7909        -65.0733       -0.0130221         146.946
0.563                  -0.508532        -153.731         -51.5934        -66.3318         -51.5937         -66.332       -0.0131325         146.875
0.564                  -0.520558        -154.428         -51.3955        -67.5827         -51.3955        -67.5827       -0.0132445         146.804
0.565                  -0.533272        -155.135         -51.1966        -68.8269         -51.1963        -68.8268       -0.0133581         146.732
0.566                  -0.546719         -155.85         -50.9968        -70.0654         -50.9963        -70.0651       -0.0134734          146.66
0.567                  -0.560946        -156.576         -50.7962        -71.2994         -50.7955        -71.2989       -0.0135903         146.588
0.568                  -0.576002        -157.311         -50.5947        -72.5299         -50.5938        -72.5292        -0.013709         146.516
0.569                  -0.591943        -158.057         -50.3924         -73.758         -50.3912        -73.7571       -0.0138295         146.444
0.57                   -0.608826        -158.813         -50.1892        -74.9849         -50.1879        -74.9837       -0.0139518         146.372
0.571                  -0.626713        -159.579         -49.9853        -76.2115         -49.9837          -76.21       -0.0140759           146.3
0.572                  -0.645672        -160.357         -49.7805         -77.439         -49.7788        -77.4372        -0.014202         146.227
0.573                  -0.665774        -161.146         -49.5749        -78.6684          -49.573        -78.6664       -0.0143299         146.154
0.574                  -0.687099        -161.947         -49.3685        -79.9008         -49.3664        -79.8985       -0.0144599         146.082
0.575                   -0.70973        -162.759         -49.1613        -81.1373         -49.1591        -81.1347       -0.0145919         146.008
0.576                  -0.733758        -163.584         -48.9533         -82.379         -48.9509        -82.3761        -0.014726         145.935
0.577                   -0.75928        -164.422         -48.7444        -83.6268         -48.7419        -83.6237       -0.0148623         145.862
0.578                  -0.786402        -165.272         -48.5347         -84.882         -48.5321        -84.8787       -0.0150007         145.789
0.579                  -0.815239        -166.135         -48.3242        -86.1457         -48.3215        -86.1421       -0.0151413         145.715
0.58                   -0.845914        -167.012         -48.1129        -87.4188           -48.11         -87.415       -0.0152843         145.641
0.581                  -0.878561        -167.903         -47.9007        -88.7026         -47.8977        -88.6985       -0.0154296         145.567
0.582                  -0.913324        -168.808         -47.6876        -89.9981         -47.6846        -89.9939       -0.0155773         145.493
0.583                   -0.95036        -169.727         -47.4738        -91.3065         -47.4706        -91.3021       -0.0157275         145.419
0.584                  -0.989839        -170.661         -47.2591        -92.6289         -47.2558        -92.6244       -0.0158802         145.344
0.585                   -1.03194         -171.61         -47.0435        -93.9665         -47.0402        -93.9619       -0.0160355          145.27
0.586                   -1.07687        -172.574         -46.8272        -95.3205         -46.8238        -95.3157       -0.0161934         145.195
0.587                   -1.12485        -173.553         -46.6101         -96.692         -46.6066        -96.6872       -0.0163541          145.12
0.588                    -1.1761        -174.548         -46.3922        -98.0822         -46.3887        -98.0774       -0.0165175         145.045
0.589                   -1.23088        -175.559         -46.1735        -99.4925           -46.17        -99.4876       -0.0166838          144.97
0.59                    -1.28946        -176.585         -45.9542        -100.924         -45.9507        -100.919        -0.016853         144.894
0.591                   -1.35215        -177.627         -45.7343        -102.378         -45.7307        -102.373       -0.0170252         144.819
0.592                   -1.41926        -178.685         -45.5138        -103.855         -45.5102        -103.851       -0.0172004         144.743
0.593                   -1.49115        -179.758         -45.2927        -105.358         -45.2892        -105.354       -0.0173788         144.667
0.594                   -1.56819         179.154         -45.0713        -106.887         -45.0677        -106.883       -0.0175604         144.591
0.595                    -1.6508         178.052         -44.8495        -108.444         -44.8459        -108.439       -0.0177454         144.515
0.596                   -1.73941         176.937         -44.6275        -110.029         -44.6239        -110.025       -0.0179336         144.438
0.597                    -1.8345         175.808         -44.4054        -111.645         -44.4019        -111.641       -0.0181254         144.361
0.598                   -1.93658         174.668         -44.1834        -113.292         -44.1799        -113.288       -0.0183206         144.285
0.599                   -2.04619         173.519         -43.9615        -114.971         -43.9581        -114.968       -0.0185195         144.208
0.6                     -2.16392         172.361         -43.7401        -116.685         -43.7367        -116.682       -0.0187221          144.13
0.601                    -2.2904         171.198         -43.5193        -118.434          -43.516        -118.431       -0.0189285         144.053
0.602                   -2.42628         170.033         -43.2993        -120.219          -43.296        -120.216       -0.0191388         143.975
0.603                   -2.57225         168.868         -43.0803        -122.041         -43.0771        -122.039       -0.0193531         143.897
0.604                   -2.72905         167.708         -42.8627        -123.902         -42.8596          -123.9       -0.0195713         143.819
0.605                   -2.89741         166.559         -42.6467        -125.801         -42.6437          -125.8       -0.0197938         143.741
0.606                   -3.07811         165.426         -42.4326        -127.741         -42.4297         -127.74       -0.0200204         143.663
0.607                   -3.27193         164.317         -42.2208        -129.721         -42.2179         -129.72       -0.0202514         143.584
0.608                   -3.47961         163.239         -42.0115        -131.742         -42.0088        -131.742       -0.0204867         143.505
0.609                   -3.70189         162.203         -41.8053        -133.804         -41.8027        -133.804       -0.0207265         143.426
0.61                    -3.93942          161.22         -41.6025        -135.908            -41.6        -135.908       -0.0209709         143.347
0.611                   -4.19277         160.303         -41.4035        -138.053         -41.4011        -138.053       -0.0212198         143.267
0.612                   -4.46232         159.467         -41.2087        -140.238         -41.2065        -140.239       -0.0214734         143.188
0.613                   -4.74824          158.73         -41.0186        -142.463         -41.0165        -142.464       -0.0217316         143.108
0.614                   -5.05041         158.111         -40.8336        -144.727         -40.8317        -144.728       -0.0219947         143.028
0.615                   -5.36826         157.632         -40.6542        -147.028         -40.6524         -147.03       -0.0222625         142.947
0.616                   -5.70068         157.318         -40.4808        -149.365         -40.4792        -149.367       -0.0225351         142.867
0.617                   -6.04587         157.194         -40.3138        -151.735         -40.3123        -151.737       -0.0228126         142.786
0.618                   -6.40111         157.288         -40.1537        -154.137         -40.1523        -154.139       -0.0230948         142.705
0.619                   -6.76263         157.628         -40.0008        -156.567         -39.9996        -156.569       -0.0233818         142.624
0.62                    -7.12536          158.24         -39.8554        -159.022         -39.8544        -159.024       -0.0236736         142.542
0.621                   -7.48281         159.146         -39.7179        -161.499         -39.7171        -161.501         -0.02397          142.46
0.622                   -7.82705         160.361         -39.5886        -163.994         -39.5879        -163.996        -0.024271         142.379
0.623                   -8.14881         161.889         -39.4676        -166.504          -39.467        -166.505       -0.0245765         142.296
0.624                   -8.43789          163.72         -39.3551        -169.023         -39.3546        -169.025       -0.0248864         142.214
0.625                   -8.68392         165.822         -39.2512        -171.549         -39.2508         -171.55       -0.0252005         142.131
0.626                   -8.87732         168.146         -39.1559        -174.076         -39.1556        -174.077       -0.0255186         142.048
0.627                   -9.01055         170.622         -39.0691          -176.6         -39.0689          -176.6       -0.0258406         141.965
0.628                   -9.07914         173.165         -38.9907        -179.117         -38.9906        -179.117       -0.0261663         141.882
0.629                   -9.08239         175.688         -38.9205         178.377         -38.9205         178.377       -0.0264953         141.798
0.63                    -9.02344         178.103         -38.8583         175.887         -38.8584         175.887       -0.0268275         141.715
0.631                   -8.90868        -179.662         -38.8038         173.416         -38.8039         173.416       -0.0271627          141.63
0.632                   -8.74675        -177.664         -38.7566         170.968         -38.7568         170.969       -0.0275006         141.546
0.633                   -8.54733        -175.938         -38.7163         168.546         -38.7165         168.547       -0.0278409         141.461
0.634                   -8.32014        -174.502         -38.6824         166.153         -38.6827         166.154       -0.0281834         141.376
0.635                   -8.07414        -173.356         -38.6546         163.791         -38.6549         163.793       -0.0285279         141.291
0.636                   -7.81709        -172.493         -38.6322         161.464         -38.6325         161.466       -0.0288742         141.206
0.637                    -7.5554        -171.894         -38.6148         159.173         -38.6151         159.175       -0.0292221          141.12
0.638                   -7.29414        -171.537         -38.6018          156.92         -38.6021         156.922       -0.0295716         141.034
0.639                   -7.03715          -171.4         -38.5927         154.705          -38.593         154.707       -0.0299225         140.948
0.64                    -6.78725        -171.458          -38.587          152.53         -38.5873         152.532       -0.0302747         140.861
0.641                    -6.5464         -171.69         -38.5841         150.396         -38.5844         150.398       -0.0306285         140.774
0.642                   -6.31591        -172.075         -38.5836         148.302         -38.5838         148.304       -0.0309837         140.687
0.643                   -6.09657        -172.594         -38.5849         146.249         -38.5851          146.25       -0.0313405         140.599
0.644                   -5.88877         -173.23         -38.5875         144.236         -38.5877         144.238       -0.0316991         140.511
0.645                   -5.69263        -173.969         -38.5911         142.263         -38.5913         142.265       -0.0320599         140.423
0.646                   -5.50805        -174.798         -38.5951          140.33         -38.5953         140.331       -0.0324229         140.334
0.647                   -5.33479        -175.705         -38.5992         138.435         -38.5993         138.436       -0.0327886         140.245
0.648                   -5.17252        -176.682         -38.6029         136.578          -38.603         136.579       -0.0331574         140.156
0.649                   -5.02082        -177.719          -38.606         134.757         -38.6061         134.758       -0.0335297         140.066
0.65                    -4.87927         -178.81          -38.608         132.972         -38.6081         132.973       -0.0339058         139.976
0.651                    -4.7474        -179.949         -38.6087         131.221         -38.6087         131.222       -0.0342863         139.886
0.652                   -4.62476          178.87         -38.6077         129.503         -38.6078         129.503       -0.0346716         139.795
0.653                    -4.5109          177.65         -38.6049         127.816         -38.6049         127.816       -0.0350622         139.703
0.654                   -4.40537         176.395         -38.5999         126.159         -38.5999         126.159       -0.0354586         139.612
0.655                   -4.30775         175.109         -38.5925         124.531         -38.5925          124.53       -0.0358612          139.52
0.656                   -4.21765         173.794         -38.5826          122.93         -38.5826         122.928       -0.0362704         139.427
0.657                   -4.13469         172.452         -38.5699         121.354         -38.5699         121.352       -0.0366869         139.334
0.658                   -4.05852         171.084         -38.5543         119.801         -38.5543         119.799       -0.0371109         139.241
0.659                   -3.98881         169.692         -38.5356         118.271         -38.5356         118.269        -0.037543         139.147
0.66                    -3.92526         168.278         -38.5138         116.762         -38.5138         116.759       -0.0379835         139.053
0.661                    -3.8676         166.841         -38.4886         115.272         -38.4886         115.269       -0.0384329         138.958
0.662                   -3.81556         165.383           -38.46         113.799           -38.46         113.796       -0.0388915         138.863
0.663                   -3.76892         163.904         -38.4278         112.343         -38.4278         112.339       -0.0393597         138.768
0.664                   -3.72746         162.404         -38.3921         110.901         -38.3921         110.897       -0.0398378         138.672
0.665                     -3.691         160.884         -38.3528         109.472         -38.3528         109.468       -0.0403262         138.575
0.666                   -3.65935         159.343         -38.3097         108.054         -38.3098          108.05       -0.0408252         138.478
0.667                   -3.63237         157.781         -38.2629         106.647          -38.263         106.642       -0.0413351         138.381
0.668                   -3.60992         156.198         -38.2124         105.248         -38.2125         105.243       -0.0418563         138.283
0.669                   -3.59188         154.593         -38.1581         103.855         -38.1582          103.85        -0.042389         138.185
0.67                    -3.57816         152.967            -38.1         102.468         -38.1001         102.463       -0.0429335         138.086
0.671                   -3.56865         151.318         -38.0381         101.085         -38.0382          101.08       -0.0434902         137.987
0.672                    -3.5633         149.646         -37.9724         99.7051         -37.9726         99.7001       -0.0440592         137.887
0.673                   -3.56204          147.95         -37.9031         98.3258         -37.9032         98.3208       -0.0446409         137.786
0.674                   -3.56482          146.23           -37.83         96.9462         -37.8302         96.9411       -0.0452355         137.685
0.675                   -3.57161         144.484         -37.7532         95.5649         -37.7534         95.5598       -0.0458434         137.584
0.676                    -3.5824         142.712         -37.6729         94.1804         -37.6731         94.1754       -0.0464649         137.482
0.677                   -3.59717         140.913         -37.5891         92.7914         -37.5893         92.7865       -0.0471001          137.38
0.678                   -3.61592         139.086         -37.5017         91.3966          -37.502         91.3918       -0.0477494         137.277
0.679                   -3.63868          137.23         -37.4111         89.9946         -37.4113           89.99       -0.0484132         137.173
0.68                    -3.66547         135.343         -37.3171         88.5841         -37.3174         88.5797       -0.0490916         137.069
0.681                   -3.69632         133.425           -37.22         87.1639         -37.2203         87.1596        -0.049785         136.964
0.682                   -3.73129         131.474         -37.1199         85.7326         -37.1201         85.7286       -0.0504938         136.859
0.683                   -3.77042         129.489         -37.0168         84.2892         -37.0171         84.2854       -0.0512182         136.753
0.684                   -3.81378         127.468          -36.911         82.8324         -36.9113         82.8288       -0.0519586         136.646
0.685                   -3.86146          125.41         -36.8026          81.361         -36.8028         81.3577       -0.0527154         136.539
0.686                   -3.91352         123.314         -36.6917          79.874         -36.6919          79.871       -0.0534888         136.431
0.687                   -3.97008         121.178         -36.5785         78.3704         -36.5788         78.3677       -0.0542792         136.323
0.688                   -4.03122             119         -36.4632         76.8491         -36.4635         76.8467       -0.0550871         136.214
0.689                   -4.09706         116.778         -36.3461         75.3092         -36.3463         75.3072       -0.0559128         136.104
0.69                    -4.16771         114.512         -36.2273           73.75         -36.2275         73.7483       -0.0567566         135.994
0.691                    -4.2433         112.197          -36.107         72.1706         -36.1071         72.1692       -0.0576191         135.883
0.692                   -4.32395         109.834         -35.9854         70.5703         -35.9856         70.5692       -0.0585007         135.771
0.693                   -4.40978          107.42         -35.8629         68.9486          -35.863         68.9478       -0.0594017         135.659
0.694                   -4.50094         104.951         -35.7396         67.3049         -35.7397         67.3044       -0.0603227         135.546
0.695                   -4.59756         102.428         -35.6158         65.6388         -35.6158         65.6386       -0.0612641         135.432
0.696                   -4.69976         99.8453         -35.4917         63.9501         -35.4917         63.9502       -0.0622264         135.317