! TOUCHSTONE file generated by CST MICROWAVE STUDIO
! Date and time: Sat Nov 14 20:02:05 2020
! Project name: Scenario_1_Planar_Body_Tissue_Out_of_Line.cst
! Parameters = {dy1=-103.8; L_HA=400; Ltissue=700; MT=2.54; Rad_Dielectric=30; Rad_Lower=7.3; Rad_Upper=30; Wtissue=700; a_HA=580; a_WG=246; b_HA=500; b_WG=121; c_HA=0; c_WG=187; d_feed=85; dx1=693; h_feed=15; h_lower=18; h_upper=40; hfat=3; hgap=25; hmuscle=50; hskin=1.5}
! Header version: 2018
! Port assignment regex: !\s*Touchstone port\s*([0-9]+)\s*=\s*(CST MWS port|CST DS port)\s*([0-9]+|Zmin|Zmax)\s*\(\"(.*)\"\)(\s*mode\s*([0-9]+))?.*
! Touchstone port assignment:
! Touchstone port 1 = CST MWS port 1 ("")
! Touchstone port 2 = CST MWS port 2 ("")
# GHz S DB R 50
0.5                    -0.201469        -121.566         -61.2712        -171.454         -61.2717        -171.453      -0.00776897         151.158
0.501                  -0.202521        -121.985         -61.1823        -172.456         -61.1848        -172.445       -0.0078332         151.093
0.502                  -0.203635        -122.408         -61.0919        -173.472         -61.0963        -173.449      -0.00789789         151.027
0.503                  -0.204815        -122.833              -61          -174.5         -61.0064        -174.467      -0.00796307         150.962
0.504                  -0.206064        -123.262         -60.9065        -175.541         -60.9149        -175.497      -0.00802873         150.897
0.505                  -0.207385        -123.693         -60.8114        -176.596         -60.8218        -176.541      -0.00809488         150.831
0.506                  -0.208782        -124.127         -60.7147        -177.665         -60.7271        -177.598      -0.00816154         150.766
0.507                  -0.210258        -124.564         -60.6163        -178.747         -60.6308        -178.669      -0.00822871           150.7
0.508                  -0.211817        -125.004         -60.5163        -179.843         -60.5328        -179.754      -0.00829639         150.635
0.509                  -0.213463        -125.448         -60.4145         179.046         -60.4331         179.146      -0.00836459         150.569
0.51                   -0.215201        -125.895         -60.3109          177.92         -60.3316         178.033      -0.00843333         150.503
0.511                  -0.217034        -126.344         -60.2056         176.779         -60.2283         176.904       -0.0085026         150.437
0.512                  -0.218969        -126.798         -60.0984         175.623         -60.1233          175.76      -0.00857242         150.371
0.513                  -0.221009        -127.254         -59.9894         174.452         -60.0164         174.601      -0.00864279         150.305
0.514                  -0.223161        -127.714         -59.8785         173.265         -59.9076         173.426      -0.00871372         150.239
0.515                  -0.225429        -128.178         -59.7656         172.061         -59.7969         172.236      -0.00878522         150.173
0.516                  -0.227822        -128.645         -59.6509         170.841         -59.6843         171.029      -0.00885731         150.106
0.517                  -0.230344        -129.116         -59.5342         169.604         -59.5696         169.805      -0.00892998          150.04
0.518                  -0.233003        -129.591         -59.4155          168.35          -59.453         168.564      -0.00900324         149.973
0.519                  -0.235806        -130.069         -59.2947         167.078         -59.3344         167.306      -0.00907712         149.907
0.52                   -0.238761        -130.552         -59.1719         165.788         -59.2137         166.031       -0.0091516          149.84
0.521                  -0.241878        -131.038         -59.0471         164.481         -59.0909         164.737      -0.00922671         149.773
0.522                  -0.245164        -131.529         -58.9202         163.154          -58.966         163.425      -0.00930246         149.707
0.523                  -0.248629        -132.024         -58.7912         161.808          -58.839         162.094      -0.00937885          149.64
0.524                  -0.252284        -132.523         -58.6601         160.443         -58.7098         160.744       -0.0094559         149.573
0.525                   -0.25614        -133.026         -58.5269         159.057         -58.5785         159.374      -0.00953361         149.505
0.526                  -0.260209        -133.534         -58.3916         157.652          -58.445         157.984        -0.009612         149.438
0.527                  -0.264504        -134.046         -58.2541         156.225         -58.3093         156.574      -0.00969108         149.371
0.528                  -0.269038        -134.564         -58.1146         154.777         -58.1715         155.142      -0.00977085         149.304
0.529                  -0.273825        -135.086          -57.973         153.308         -58.0315          153.69      -0.00985135         149.236
0.53                   -0.278883        -135.612         -57.8293         151.816         -57.8893         152.215      -0.00993256         149.168
0.531                  -0.284227        -136.144         -57.6836         150.301          -57.745         150.717       -0.0100145         149.101
0.532                  -0.289877        -136.682         -57.5358         148.763         -57.5986         149.197       -0.0100972         149.033
0.533                  -0.295852        -137.224         -57.3861         147.201           -57.45         147.653       -0.0101807         148.965
0.534                  -0.302173        -137.772         -57.2345         145.614         -57.2994         146.086        -0.010265         148.897
0.535                  -0.308864        -138.325         -57.0811         144.003         -57.1468         144.493         -0.01035         148.829
0.536                  -0.315949        -138.884         -56.9258         142.367         -56.9922         142.876       -0.0104359         148.761
0.537                  -0.323455         -139.45          -56.769         140.704         -56.8358         141.232       -0.0105226         148.693
0.538                  -0.331413        -140.021         -56.6105         139.015         -56.6776         139.563       -0.0106102         148.624
0.539                  -0.339853        -140.598         -56.4506           137.3         -56.5177         137.866       -0.0106986         148.556
0.54                    -0.34881        -141.181         -56.2895         135.557         -56.3562         136.143        -0.010788         148.487
0.541                  -0.358322        -141.771         -56.1272         133.786         -56.1933         134.391       -0.0108782         148.418
0.542                  -0.368429        -142.368         -55.9639         131.988         -56.0292         132.612       -0.0109694          148.35
0.543                  -0.379176        -142.972            -55.8         130.162         -55.8639         130.803       -0.0110616         148.281
0.544                   -0.39061        -143.582         -55.6355         128.307         -55.6978         128.966       -0.0111547         148.212
0.545                  -0.402784          -144.2         -55.4707         126.424          -55.531         127.099       -0.0112489         148.142
0.546                  -0.415756        -144.825          -55.306         124.514         -55.3639         125.204       -0.0113442         148.073
0.547                  -0.429588        -145.458         -55.1417         122.575         -55.1966         123.278       -0.0114405         148.004
0.548                  -0.444349        -146.098         -54.9781         120.611         -55.0296         121.324        -0.011538         147.934
0.549                  -0.460113        -146.746         -54.8155          118.62         -54.8631         119.341       -0.0116367         147.865
0.55                   -0.476962        -147.402         -54.6544         116.606         -54.6977         117.331       -0.0117365         147.795
0.551                  -0.494985        -148.067         -54.4952         114.569         -54.5337         115.293       -0.0118377         147.725
0.552                  -0.514279        -148.739         -54.3384         112.512         -54.3716         113.231       -0.0119402         147.655
0.553                  -0.534953         -149.42         -54.1843         110.438         -54.2118         111.146        -0.012044         147.585
0.554                  -0.557122         -150.11         -54.0334         108.352          -54.055          109.04       -0.0121493         147.515
0.555                  -0.580914        -150.808         -53.8862         106.258         -53.9017         106.918       -0.0122561         147.445
0.556                  -0.606471        -151.514         -53.7431         104.162         -53.7525         104.785       -0.0123646         147.374
0.557                  -0.633944        -152.229         -53.6043         102.072         -53.6078         102.645       -0.0124747         147.304
0.558                    -0.6635        -152.953         -53.4701         99.9946         -53.4683         100.507       -0.0125865         147.233
0.559                  -0.695322        -153.684         -53.3404         97.9408         -53.3343         98.3779       -0.0127003         147.162
0.56                   -0.729607        -154.424          -53.215         95.9219         -53.2062         96.2698        -0.012816         147.091
0.561                  -0.766569        -155.171         -53.0933         93.9503         -53.0841         94.1948       -0.0129338          147.02
0.562                  -0.806442        -155.925         -52.9744         92.0403         -52.9678         92.1679       -0.0130538         146.949
0.563                  -0.849474        -156.685         -52.8566         90.2066         -52.8566         90.2065       -0.0131762         146.877
0.564                  -0.895933         -157.45         -52.7376         88.4641         -52.7491           88.33       -0.0133012         146.806
0.565                  -0.946102        -158.219         -52.6142         86.8268         -52.6434         86.5599       -0.0134288         146.734
0.566                   -1.00028        -158.992         -52.4822         85.3055         -52.5361         84.9182       -0.0135592         146.662
0.567                   -1.05878        -159.764         -52.3365         83.9062         -52.4225         83.4258       -0.0136927          146.59
0.568                   -1.12192        -160.536          -52.171         82.6264         -52.2963         82.0993       -0.0138294         146.518
0.569                   -1.19001        -161.303         -51.9786         81.4521         -52.1494         80.9467       -0.0139695         146.446
0.57                    -1.26337        -162.063         -51.7525         80.3547         -51.9719         79.9606       -0.0141132         146.374
0.571                   -1.34229        -162.811         -51.4862         79.2887         -51.7529         79.1122       -0.0142606         146.301
0.572                     -1.427        -163.544         -51.1749         78.1917         -51.4815         78.3439       -0.0144121         146.229
0.573                   -1.51771        -164.255         -50.8164         76.9877         -51.1489         77.5674       -0.0145677         146.156
0.574                    -1.6145         -164.94         -50.4122         75.5931         -50.7503         76.6661       -0.0147276         146.083
0.575                   -1.71735         -165.59         -49.9677         73.9258         -50.2875         75.5071        -0.014892          146.01
0.576                   -1.82608        -166.198          -49.492         71.9146         -49.7695         73.9598       -0.0150609         145.937
0.577                   -1.94029        -166.757         -48.9975         69.5081         -49.2123         71.9165       -0.0152344         145.863
0.578                   -2.05933        -167.257         -48.4982         66.6799         -48.6368         69.3101       -0.0154125          145.79
0.579                   -2.18225         -167.69         -48.0088         63.4311         -48.0662         66.1236       -0.0155952         145.716
0.58                    -2.30775        -168.047         -47.5428         59.7883         -47.5227         62.3898       -0.0157823         145.642
0.581                   -2.43419        -168.321          -47.112            55.8         -47.0251         58.1831       -0.0159737         145.569
0.582                   -2.55952        -168.506         -46.7253         51.5302         -46.5867         53.6058       -0.0161691         145.494
0.583                   -2.68137        -168.598         -46.3884         47.0515         -46.2151         48.7726       -0.0163682          145.42
0.584                    -2.7971        -168.597         -46.1041         42.4386         -45.9124         43.7968       -0.0165706         145.346
0.585                   -2.90394        -168.507         -45.8722         37.7623         -45.6762         38.7792        -0.016776         145.272
0.586                   -2.99913        -168.336         -45.6903         33.0854         -45.5009         33.8022       -0.0169838         145.197
0.587                   -3.08015        -168.097         -45.5545           28.46          -45.379         28.9277       -0.0171936         145.122
0.588                   -3.14489        -167.807         -45.4596         23.9265         -45.3026         24.1978       -0.0174049         145.047
0.589                   -3.19186        -167.485         -45.4001         19.5144         -45.2635         19.6386       -0.0176172         144.972
0.59                    -3.22034        -167.154         -45.3706         15.2431         -45.2546         15.2627       -0.0178302         144.897
0.591                   -3.23037        -166.835         -45.3659         11.1236         -45.2693         11.0739       -0.0180435         144.822
0.592                    -3.2228        -166.551         -45.3812         7.16077         -45.3023         7.06907       -0.0182566         144.746
0.593                    -3.1991        -166.319         -45.4122         3.35436         -45.3489         3.24137       -0.0184694         144.671
0.594                   -3.16129        -166.155         -45.4554        -0.29915         -45.4055       -0.418552       -0.0186818         144.595
0.595                   -3.11165        -166.071         -45.5076         -3.8056         -45.4691        -3.92119       -0.0188934         144.519
0.596                   -3.05262        -166.073         -45.5663        -7.17222         -45.5371        -7.27738       -0.0191045         144.443
0.597                   -2.98661        -166.166         -45.6292         -10.407         -45.6077        -10.4978       -0.0193148         144.367
0.598                   -2.91586         -166.35         -45.6947        -13.5182         -45.6793        -13.5929       -0.0195246          144.29
0.599                    -2.8424        -166.623         -45.7611        -16.5142         -45.7507        -16.5721       -0.0197339         144.214
0.6                     -2.76794        -166.982         -45.8275        -19.4029         -45.8208        -19.4446        -0.019943         144.137
0.601                   -2.69396         -167.42         -45.8927        -22.1922         -45.8889        -22.2186       -0.0201519          144.06
0.602                   -2.62162        -167.934          -45.956        -24.8891         -45.9544        -24.9018        -0.020361         143.982
0.603                   -2.55184        -168.515         -46.0168        -27.5007         -46.0168        -27.5013       -0.0205704         143.905
0.604                   -2.48531        -169.159         -46.0746        -30.0332         -46.0757        -30.0234       -0.0207805         143.827
0.605                   -2.42254         -169.86         -46.1289        -32.4926         -46.1308        -32.4741       -0.0209913         143.749
0.606                   -2.36389        -170.613         -46.1794        -34.8843         -46.1818        -34.8588       -0.0212032         143.671
0.607                   -2.30958        -171.411          -46.226        -37.2135         -46.2286        -37.1824       -0.0214165         143.593
0.608                   -2.25974        -172.252         -46.2684        -39.4848         -46.2711        -39.4495       -0.0216312         143.515
0.609                   -2.21443        -173.131         -46.3064        -41.7026          -46.309        -41.6643       -0.0218477         143.436
0.61                    -2.17366        -174.045           -46.34        -43.8709         -46.3425        -43.8308       -0.0220662         143.357
0.611                   -2.13738        -174.991         -46.3691        -45.9935         -46.3713        -45.9525       -0.0222868         143.278
0.612                   -2.10555        -175.966         -46.3935        -48.0738         -46.3956        -48.0328       -0.0225098         143.198
0.613                   -2.07808        -176.968         -46.4134        -50.1152         -46.4151        -50.0749       -0.0227353         143.119
0.614                   -2.05489        -177.996         -46.4286        -52.1207         -46.4301        -52.0816       -0.0229635         143.039
0.615                    -2.0359        -179.048         -46.4392        -54.0931         -46.4404        -54.0557       -0.0231945         142.959
0.616                   -2.02102         179.878         -46.4452         -56.035         -46.4462        -55.9998       -0.0234286         142.878
0.617                   -2.01019         178.782         -46.4465        -57.9491         -46.4473        -57.9163       -0.0236658         142.798
0.618                   -2.00334         177.665         -46.4433        -59.8377         -46.4439        -59.8076       -0.0239062         142.717
0.619                   -2.00042         176.527         -46.4356        -61.7031         -46.4359        -61.6757       -0.0241502         142.636
0.62                    -2.00139         175.369         -46.4233        -63.5473         -46.4235        -63.5229       -0.0243976         142.555
0.621                   -2.00621         174.192         -46.4066        -65.3724         -46.4067         -65.351       -0.0246487         142.473
0.622                    -2.0149         172.995         -46.3855        -67.1805         -46.3854         -67.162       -0.0249036         142.391
0.623                   -2.02743         171.778           -46.36        -68.9733         -46.3599        -68.9577       -0.0251624         142.309
0.624                   -2.04385         170.542         -46.3302        -70.7527           -46.33          -70.74       -0.0254253         142.227
0.625                   -2.06418         169.286         -46.2962        -72.5204          -46.296        -72.5104       -0.0256922         142.144
0.626                   -2.08849         168.011          -46.258        -74.2781         -46.2578        -74.2707       -0.0259634         142.061
0.627                   -2.11684         166.715         -46.2156        -76.0274         -46.2155        -76.0225       -0.0262389         141.978
0.628                   -2.14932         165.398         -46.1693        -77.7699         -46.1691        -77.7674       -0.0265188         141.895
0.629                   -2.18605         164.061         -46.1189        -79.5073         -46.1188        -79.5068       -0.0268033         141.811
0.63                    -2.22715         162.703         -46.0647        -81.2409         -46.0646        -81.2424       -0.0270925         141.727
0.631                   -2.27277         161.324         -46.0066        -82.9723         -46.0067        -82.9756       -0.0273864         141.643
0.632                   -2.32308         159.922         -45.9449         -84.703          -45.945        -84.7078       -0.0276852         141.559
0.633                   -2.37826         158.498         -45.8795        -86.4343         -45.8797        -86.4405       -0.0279889         141.474
0.634                   -2.43853         157.052         -45.8105        -88.1678         -45.8108        -88.1751       -0.0282978         141.389
0.635                   -2.50412         155.583         -45.7382        -89.9047         -45.7385        -89.9129       -0.0286118         141.303
0.636                   -2.57529          154.09         -45.6625        -91.6466         -45.6629        -91.6555       -0.0289312         141.218
0.637                   -2.65232         152.573         -45.5836        -93.3946         -45.5841        -93.4041        -0.029256         141.132
0.638                   -2.73553         151.033         -45.5016        -95.1502         -45.5022          -95.16       -0.0295863         141.045
0.639                   -2.82524         149.468         -45.4167        -96.9146         -45.4174        -96.9246       -0.0299223         140.959
0.64                    -2.92183         147.879          -45.329        -98.6892         -45.3298        -98.6991       -0.0302641         140.872
0.641                   -3.02569         146.265         -45.2387        -100.475         -45.2395        -100.485       -0.0306117         140.785
0.642                   -3.13726         144.626         -45.1459        -102.274         -45.1467        -102.283       -0.0309654         140.697
0.643                     -3.257         142.963         -45.0507        -104.086         -45.0516        -104.095       -0.0313252         140.609
0.644                   -3.38541         141.276         -44.9535        -105.913         -44.9544        -105.921       -0.0316913         140.521
0.645                   -3.52304         139.564         -44.8544        -107.756         -44.8553        -107.764       -0.0320638         140.433
0.646                   -3.67046         137.829         -44.7536        -109.616         -44.7544        -109.623       -0.0324429         140.344
0.647                   -3.82831          136.07         -44.6513        -111.494         -44.6521          -111.5       -0.0328286         140.254
0.648                   -3.99726          134.29         -44.5478        -113.391         -44.5485        -113.396       -0.0332212         140.165
0.649                   -4.17805         132.488         -44.4433        -115.307          -44.444        -115.311       -0.0336207         140.075
0.65                    -4.37144         130.666         -44.3381        -117.243         -44.3387        -117.247       -0.0340273         139.985
0.651                   -4.57828         128.827         -44.2324          -119.2         -44.2329        -119.203       -0.0344411         139.894
0.652                   -4.79947          126.97         -44.1267        -121.179          -44.127         -121.18       -0.0348624         139.803
0.653                   -5.03599           125.1          -44.021        -123.178         -44.0213        -123.179       -0.0352911         139.712
0.654                    -5.2889         123.219         -43.9159        -125.199          -43.916        -125.199       -0.0357276          139.62
0.655                   -5.55932         121.329         -43.8115        -127.242         -43.8115        -127.241       -0.0361719         139.528
0.656                   -5.84849         119.436         -43.7083        -129.305          -43.708        -129.304       -0.0366241         139.435
0.657                   -6.15776         117.542         -43.6064         -131.39          -43.606        -131.387       -0.0370845         139.342
0.658                   -6.48859         115.654         -43.5063        -133.494         -43.5057        -133.492       -0.0375532         139.249
0.659                   -6.84258         113.778         -43.4083        -135.618         -43.4075        -135.615       -0.0380304         139.155
0.66                     -7.2215          111.92         -43.3127         -137.76         -43.3117        -137.757       -0.0385162         139.061
0.661                   -7.62731         110.089         -43.2197        -139.919         -43.2186        -139.916       -0.0390107         138.966
0.662                   -8.06218         108.296         -43.1297        -142.093         -43.1284         -142.09       -0.0395141         138.871
0.663                   -8.52857         106.552         -43.0429        -144.281         -43.0415        -144.278       -0.0400266         138.776
0.664                   -9.02923         104.871         -42.9596        -146.481          -42.958        -146.478       -0.0405484          138.68
0.665                    -9.5673         103.272         -42.8799        -148.691         -42.8782        -148.688       -0.0410795         138.584
0.666                   -10.1464         101.775         -42.8042        -150.908         -42.8023        -150.906       -0.0416202         138.487
0.667                   -10.7705         100.409         -42.7324         -153.13         -42.7305        -153.129       -0.0421706          138.39
0.668                   -11.4446         99.2069         -42.6647        -155.355         -42.6627        -155.354       -0.0427308         138.292
0.669                    -12.174          98.215         -42.6012         -157.58         -42.5992         -157.58       -0.0433011         138.194
0.67                    -12.9649         97.4924          -42.542        -159.802         -42.5399        -159.803       -0.0438816         138.096
0.671                   -13.8246          97.119         -42.4869         -162.02         -42.4849        -162.021       -0.0444725         137.996
0.672                   -14.7605         97.2051          -42.436        -164.229          -42.434        -164.231       -0.0450739         137.897
0.673                   -15.7801         97.9053         -42.3892        -166.428         -42.3872        -166.431       -0.0456861         137.797
0.674                   -16.8884         99.4393         -42.3462        -168.614         -42.3444        -168.617       -0.0463091         137.696
0.675                   -18.0837         102.121         -42.3071        -170.785         -42.3053        -170.789       -0.0469433         137.595
0.676                   -19.3467         106.386         -42.2714        -172.939         -42.2698        -172.943       -0.0475889         137.493
0.677                   -20.6195          112.79         -42.2391        -175.073         -42.2376        -175.077       -0.0482459         137.391
0.678                   -21.7727         121.855         -42.2098        -177.186         -42.2085         -177.19       -0.0489148         137.289
0.679                   -22.5878         133.597         -42.1833        -179.275         -42.1821        -179.279       -0.0495957         137.185
0.68                    -22.8355         146.865         -42.1592          178.66         -42.1581         178.656       -0.0502889         137.082
0.681                   -22.4597         159.528         -42.1372          176.62         -42.1363         176.617       -0.0509946         136.977
0.682                    -21.635         169.887          -42.117         174.608         -42.1163         174.605       -0.0517133         136.872
0.683                   -20.6027         177.503         -42.0983         172.623         -42.0977          172.62       -0.0524451         136.767
0.684                   -19.5321        -177.244         -42.0806         170.666         -42.0802         170.664       -0.0531904         136.661
0.685                   -18.5081        -173.782         -42.0638         168.737         -42.0635         168.736       -0.0539497         136.554
0.686                   -17.5632        -171.618         -42.0473         166.838         -42.0472         166.837       -0.0547231         136.446
0.687                   -16.7046        -170.388          -42.031         164.966         -42.0309         164.967       -0.0555113         136.338
0.688                   -15.9292        -169.837         -42.0144         163.124         -42.0145         163.125       -0.0563144          136.23
0.689                   -15.2298        -169.788         -41.9974         161.309         -41.9975         161.312       -0.0571331          136.12
0.69                    -14.5985        -170.115         -41.9795         159.522         -41.9796         159.525       -0.0579676          136.01
0.691                   -14.0276        -170.729         -41.9605         157.762         -41.9607         157.766       -0.0588186           135.9
0.692                   -13.5104        -171.565         -41.9401         156.028         -41.9404         156.033       -0.0596864         135.788
0.693                   -13.0408        -172.575         -41.9182         154.319         -41.9184         154.325       -0.0605716         135.676
0.694                   -12.6136        -173.724         -41.8944         152.635         -41.8947         152.642       -0.0614747         135.564
0.695                   -12.2244        -174.984         -41.8686         150.974         -41.8688         150.981       -0.0623962          135.45
0.696                   -11.8693        -176.334         -41.8406         149.335         -41.8407         149.343       -0.0633367         135.336