! TOUCHSTONE file generated by CST MICROWAVE STUDIO
! Date and time: Sat Nov 14 20:02:13 2020
! Project name: Scenario_1_Planar_Body_Tissue_Out_of_Line.cst
! Parameters = {dy1=-121.1; L_HA=400; Ltissue=700; MT=2.54; Rad_Dielectric=30; Rad_Lower=7.3; Rad_Upper=30; Wtissue=700; a_HA=580; a_WG=246; b_HA=500; b_WG=121; c_HA=0; c_WG=187; d_feed=85; dx1=693; h_feed=15; h_lower=18; h_upper=40; hfat=3; hgap=25; hmuscle=50; hskin=1.5}
! Header version: 2018
! Port assignment regex: !\s*Touchstone port\s*([0-9]+)\s*=\s*(CST MWS port|CST DS port)\s*([0-9]+|Zmin|Zmax)\s*\(\"(.*)\"\)(\s*mode\s*([0-9]+))?.*
! Touchstone port assignment:
! Touchstone port 1 = CST MWS port 1 ("")
! Touchstone port 2 = CST MWS port 2 ("")
# GHz S DB R 50
0.5                     -0.19891        -121.567          -61.428        -172.208         -61.4284        -172.207      -0.00777453         151.153
0.501                  -0.198383        -122.016         -61.4074        -173.601         -61.4077          -173.6      -0.00783233         151.087
0.502                  -0.198057        -122.466         -61.3846        -175.016          -61.385        -175.015      -0.00789092         151.022
0.503                  -0.197935        -122.918         -61.3597        -176.453           -61.36        -176.452      -0.00795031         150.957
0.504                  -0.198015         -123.37         -61.3324        -177.912         -61.3328        -177.911       -0.0080105         150.892
0.505                  -0.198299        -123.824         -61.3028        -179.393         -61.3031        -179.392      -0.00807151         150.826
0.506                  -0.198788        -124.279         -61.2705         179.103         -61.2708         179.104      -0.00813334         150.761
0.507                  -0.199481        -124.735         -61.2356         177.577         -61.2359         177.578        -0.008196         150.695
0.508                   -0.20038        -125.192         -61.1979         176.029         -61.1982          176.03      -0.00825949         150.629
0.509                  -0.201485        -125.651         -61.1574         174.459         -61.1576          174.46      -0.00832384         150.564
0.51                   -0.202796        -126.111         -61.1137         172.867          -61.114         172.868      -0.00838904         150.498
0.511                  -0.204315        -126.572          -61.067         171.253         -61.0672         171.254      -0.00845511         150.432
0.512                  -0.206041        -127.034         -61.0169         169.618         -61.0172         169.619      -0.00852206         150.366
0.513                  -0.207977        -127.498         -60.9635         167.961         -60.9638         167.962      -0.00858989           150.3
0.514                  -0.210122        -127.963         -60.9066         166.283         -60.9068         166.285      -0.00865862         150.234
0.515                  -0.212477        -128.429         -60.8461         164.585         -60.8463         164.586      -0.00872825         150.167
0.516                  -0.215043        -128.897         -60.7818         162.866          -60.782         162.868       -0.0087988         150.101
0.517                   -0.21782        -129.365         -60.7137         161.128         -60.7139         161.129      -0.00887028         150.034
0.518                  -0.220811        -129.836         -60.6417          159.37         -60.6419         159.371      -0.00894269         149.968
0.519                  -0.224015        -130.307         -60.5656         157.593         -60.5658         157.594      -0.00901605         149.901
0.52                   -0.227433         -130.78         -60.4854         155.798         -60.4856         155.799      -0.00909036         149.835
0.521                  -0.231066        -131.254          -60.401         153.985         -60.4012         153.986      -0.00916564         149.768
0.522                  -0.234915        -131.729         -60.3123         152.155         -60.3124         152.156       -0.0092419         149.701
0.523                  -0.238982        -132.206         -60.2192         150.309         -60.2193          150.31      -0.00931915         149.634
0.524                  -0.243267        -132.684         -60.1217         148.447         -60.1218         148.448      -0.00939741         149.567
0.525                  -0.247771        -133.163         -60.0197         146.569         -60.0198          146.57      -0.00947667           149.5
0.526                  -0.252495        -133.644         -59.9132         144.677         -59.9133         144.679      -0.00955696         149.433
0.527                  -0.257441        -134.126         -59.8021         142.772         -59.8023         142.773      -0.00963829         149.365
0.528                  -0.262609         -134.61         -59.6865         140.854         -59.6866         140.855      -0.00972066         149.298
0.529                  -0.268001        -135.095         -59.5662         138.923         -59.5663         138.924       -0.0098041         149.231
0.53                   -0.273617        -135.581         -59.4414         136.981         -59.4415         136.982      -0.00988861         149.163
0.531                   -0.27946        -136.069         -59.3119         135.028          -59.312         135.029       -0.0099742         149.095
0.532                   -0.28553        -136.558         -59.1779         133.065          -59.178         133.067       -0.0100609         149.027
0.533                  -0.291829        -137.049         -59.0393         131.093         -59.0394         131.094       -0.0101487          148.96
0.534                  -0.298357        -137.541         -58.8962         129.112         -58.8963         129.113       -0.0102376         148.892
0.535                  -0.305117        -138.034         -58.7487         127.122         -58.7487         127.124       -0.0103277         148.824
0.536                   -0.31211        -138.529         -58.5967         125.125         -58.5968         125.127       -0.0104189         148.755
0.537                  -0.319337        -139.025         -58.4404         123.122         -58.4405         123.123       -0.0105113         148.687
0.538                    -0.3268        -139.523         -58.2799         121.111         -58.2799         121.112       -0.0106049         148.619
0.539                  -0.334499        -140.022         -58.1152         119.094         -58.1152         119.095       -0.0106996          148.55
0.54                   -0.342438        -140.523         -57.9464         117.072         -57.9464         117.073       -0.0107956         148.482
0.541                  -0.350617        -141.025         -57.7736         115.044         -57.7737         115.045       -0.0108928         148.413
0.542                  -0.359037        -141.529          -57.597         113.011         -57.5971         113.012       -0.0109912         148.344
0.543                  -0.367702        -142.034         -57.4167         110.973         -57.4167         110.974       -0.0110909         148.275
0.544                  -0.376611        -142.541         -57.2327          108.93         -57.2328         108.931       -0.0111919         148.206
0.545                  -0.385768        -143.049         -57.0453         106.883         -57.0454         106.884       -0.0112941         148.137
0.546                  -0.395173        -143.559         -56.8545         104.831         -56.8546         104.832       -0.0113977         148.068
0.547                   -0.40483         -144.07         -56.6606         102.774         -56.6606         102.775       -0.0115025         147.998
0.548                  -0.414738        -144.583         -56.4636         100.713         -56.4636         100.714       -0.0116087         147.929
0.549                  -0.424901        -145.098         -56.2637         98.6464         -56.2638          98.647       -0.0117163         147.859
0.55                   -0.435321        -145.614         -56.0611         96.5749         -56.0611         96.5755       -0.0118252          147.79
0.551                  -0.445998        -146.132         -55.8559          94.498          -55.856         94.4985       -0.0119355          147.72
0.552                  -0.456937        -146.651         -55.6483         92.4154         -55.6484         92.4158       -0.0120472          147.65
0.553                  -0.468137        -147.172         -55.4385         90.3266         -55.4386          90.327       -0.0121604          147.58
0.554                  -0.479602        -147.694         -55.2267         88.2314         -55.2267         88.2317       -0.0122749          147.51
0.555                  -0.491334        -148.219          -55.013         86.1293          -55.013         86.1295        -0.012391          147.44
0.556                  -0.503334        -148.744         -54.7976         84.0197         -54.7976         84.0198       -0.0125085         147.369
0.557                  -0.515606        -149.272         -54.5807         81.9021         -54.5807         81.9022       -0.0126275         147.299
0.558                   -0.52815        -149.801         -54.3625         79.7761         -54.3625          79.776        -0.012748         147.228
0.559                   -0.54097        -150.332         -54.1432         77.6409         -54.1432         77.6407         -0.01287         147.157
0.56                   -0.554069        -150.864          -53.923          75.496          -53.923         75.4958       -0.0129936         147.086
0.561                  -0.567447        -151.398         -53.7021         73.3408         -53.7021         73.3405       -0.0131188         147.015
0.562                  -0.581108        -151.934         -53.4807         71.1746         -53.4807         71.1742       -0.0132456         146.944
0.563                  -0.595054        -152.472         -53.2591         68.9969         -53.2591         68.9964        -0.013374         146.873
0.564                  -0.609288        -153.011         -53.0374          66.807         -53.0374         66.8064       -0.0135041         146.802
0.565                  -0.623812        -153.552         -52.8159         64.6043         -52.8159         64.6036       -0.0136358          146.73
0.566                  -0.638629        -154.095         -52.5948         62.3882         -52.5948         62.3875       -0.0137692         146.658
0.567                  -0.653741        -154.639         -52.3744         60.1582         -52.3744         60.1574       -0.0139043         146.587
0.568                  -0.669151        -155.186         -52.1549         57.9138         -52.1549         57.9129       -0.0140411         146.515
0.569                  -0.684862        -155.734         -51.9365         55.6545         -51.9365         55.6535       -0.0141797         146.443
0.57                   -0.700876        -156.284         -51.7195         53.3799         -51.7196         53.3787       -0.0143201          146.37
0.571                  -0.717197        -156.835         -51.5042         51.0895         -51.5043         51.0883       -0.0144622         146.298
0.572                  -0.733826        -157.389         -51.2908         48.7833         -51.2909          48.782       -0.0146062         146.226
0.573                  -0.750767        -157.944         -51.0796         46.4609         -51.0797         46.4595       -0.0147521         146.153
0.574                  -0.768023        -158.501         -50.8709         44.1222          -50.871         44.1207       -0.0148998          146.08
0.575                  -0.785596         -159.06         -50.6649         41.7672          -50.665         41.7657       -0.0150494         146.007
0.576                   -0.80349        -159.621         -50.4619         39.3961          -50.462         39.3945        -0.015201         145.934
0.577                  -0.821708        -160.184         -50.2622         37.0089         -50.2623         37.0073       -0.0153545         145.861
0.578                  -0.840252        -160.748         -50.0661         34.6061         -50.0662         34.6044         -0.01551         145.788
0.579                  -0.859126        -161.315         -49.8738         32.1881         -49.8739         32.1863       -0.0156676         145.714
0.58                   -0.878332        -161.883         -49.6856         29.7555         -49.6856         29.7536       -0.0158271          145.64
0.581                  -0.897874        -162.453         -49.5017         27.3089         -49.5018          27.307       -0.0159888         145.567
0.582                  -0.917756        -163.025         -49.3224         24.8492         -49.3225         24.8472       -0.0161525         145.493
0.583                  -0.937979        -163.599         -49.1479         22.3774          -49.148         22.3754       -0.0163184         145.419
0.584                  -0.958549        -164.175         -48.9785         19.8946         -48.9786         19.8925       -0.0164864         145.344
0.585                  -0.979466        -164.753         -48.8143         17.4019         -48.8145         17.3998       -0.0166567          145.27
0.586                   -1.00074        -165.333         -48.6557         14.9009         -48.6558         14.8988       -0.0168291         145.195
0.587                   -1.02236        -165.915         -48.5026         12.3928         -48.5027         12.3907       -0.0170039          145.12
0.588                   -1.04435        -166.498         -48.3553         9.87935         -48.3555         9.87718       -0.0171809         145.046
0.589                   -1.06669        -167.084          -48.214         7.36209         -48.2141         7.35992       -0.0173602          144.97
0.59                     -1.0894        -167.672         -48.0786         4.84278         -48.0788         4.84061       -0.0175419         144.895
0.591                   -1.11249        -168.262         -47.9494         2.32321         -47.9495         2.32104        -0.017726          144.82
0.592                   -1.13594        -168.854         -47.8263       -0.194805         -47.8265       -0.196962       -0.0179126         144.744
0.593                   -1.15977        -169.447         -47.7094         -2.7094         -47.7096        -2.71154       -0.0181016         144.668
0.594                   -1.18398        -170.043         -47.5987        -5.21871         -47.5989        -5.22082       -0.0182931         144.592
0.595                   -1.20857        -170.641         -47.4941        -7.72088         -47.4943        -7.72296       -0.0184872         144.516
0.596                   -1.23355        -171.241         -47.3956        -10.2141         -47.3958        -10.2161       -0.0186838          144.44
0.597                   -1.25893        -171.843         -47.3032        -12.6965         -47.3034        -12.6985       -0.0188831         144.363
0.598                   -1.28469        -172.447         -47.2167        -15.1665         -47.2169        -15.1685        -0.019085         144.287
0.599                   -1.31086        -173.053          -47.136        -17.6224         -47.1362        -17.6243       -0.0192897          144.21
0.6                     -1.33742        -173.662          -47.061        -20.0625         -47.0612        -20.0644        -0.019497         144.133
0.601                    -1.3644        -174.272         -46.9914        -22.4855         -46.9916        -22.4873       -0.0197072         144.055
0.602                   -1.39178        -174.884         -46.9272          -24.89         -46.9274        -24.8917       -0.0199202         143.978
0.603                   -1.41957        -175.499         -46.8681        -27.2748         -46.8683        -27.2764       -0.0201361           143.9
0.604                   -1.44779        -176.116         -46.8138        -29.6386          -46.814        -29.6402       -0.0203549         143.822
0.605                   -1.47642        -176.735         -46.7643        -31.9807         -46.7645        -31.9821       -0.0205767         143.744
0.606                   -1.50548        -177.356         -46.7192           -34.3         -46.7194        -34.3013       -0.0208015         143.666
0.607                   -1.53497        -177.979         -46.6783        -36.5958         -46.6785        -36.5971       -0.0210294         143.588
0.608                    -1.5649        -178.605         -46.6414        -38.8676         -46.6416        -38.8688       -0.0212603         143.509
0.609                   -1.59526        -179.232         -46.6082        -41.1149         -46.6084         -41.116       -0.0214945          143.43
0.61                    -1.62606        -179.862         -46.5785        -43.3372         -46.5787        -43.3382       -0.0217318         143.351
0.611                   -1.65731         179.505         -46.5521        -45.5344         -46.5522        -45.5354       -0.0219724         143.272
0.612                   -1.68901         178.871         -46.5286        -47.7063         -46.5288        -47.7072       -0.0222164         143.192
0.613                   -1.72117         178.234          -46.508        -49.8529         -46.5081        -49.8537       -0.0224636         143.112
0.614                   -1.75378         177.595         -46.4898        -51.9742           -46.49        -51.9749       -0.0227144         143.032
0.615                   -1.78686         176.954         -46.4741        -54.0704         -46.4742         -54.071       -0.0229686         142.952
0.616                   -1.82041         176.311         -46.4604        -56.1416         -46.4605        -56.1421       -0.0232263         142.872
0.617                   -1.85442         175.665         -46.4486        -58.1883         -46.4487        -58.1887       -0.0234877         142.791
0.618                   -1.88892         175.017         -46.4384        -60.2107         -46.4386        -60.2111       -0.0237527          142.71
0.619                   -1.92389         174.366         -46.4298        -62.2094         -46.4299        -62.2096       -0.0240214         142.629
0.62                    -1.95935         173.713         -46.4225        -64.1847         -46.4226        -64.1848       -0.0242939         142.548
0.621                    -1.9953         173.058         -46.4163        -66.1371         -46.4164        -66.1372       -0.0245703         142.466
0.622                   -2.03175           172.4         -46.4111        -68.0673         -46.4112        -68.0674       -0.0248505         142.384
0.623                   -2.06869          171.74         -46.4067        -69.9759         -46.4067        -69.9758       -0.0251348         142.302
0.624                   -2.10614         171.078         -46.4029        -71.8634          -46.403        -71.8632       -0.0254231          142.22
0.625                    -2.1441         170.413         -46.3997        -73.7305         -46.3997        -73.7302       -0.0257155         142.137
0.626                   -2.18258         169.745         -46.3968        -75.5778         -46.3968        -75.5775       -0.0260121         142.054
0.627                   -2.22157         169.075         -46.3941         -77.406         -46.3941        -77.4056        -0.026313         141.971
0.628                   -2.26108         168.403         -46.3916        -79.2158         -46.3915        -79.2154       -0.0266182         141.888
0.629                   -2.30113         167.728          -46.389         -81.008          -46.389        -81.0074       -0.0269278         141.804
0.63                    -2.34171          167.05         -46.3864         -82.783         -46.3863        -82.7825       -0.0272419          141.72
0.631                   -2.38283          166.37         -46.3835        -84.5418         -46.3835        -84.5411       -0.0275605         141.636
0.632                   -2.42449         165.688         -46.3804        -86.2849         -46.3803        -86.2842       -0.0278839         141.551
0.633                    -2.4667         165.002         -46.3768         -88.013         -46.3767        -88.0122       -0.0282119         141.466
0.634                   -2.50947         164.315         -46.3728        -89.7269         -46.3727         -89.726       -0.0285448         141.381
0.635                    -2.5528         163.624         -46.3682        -91.4271         -46.3681        -91.4262       -0.0288826         141.296
0.636                    -2.5967         162.931          -46.363        -93.1144         -46.3629        -93.1134       -0.0292253          141.21
0.637                   -2.64116         162.235         -46.3571        -94.7894          -46.357        -94.7883       -0.0295732         141.124
0.638                   -2.68621         161.536         -46.3505        -96.4527         -46.3503        -96.4516       -0.0299262         141.038
0.639                   -2.73184         160.835          -46.343         -98.105         -46.3428        -98.1038       -0.0302846         140.952
0.64                    -2.77806          160.13         -46.3346        -99.7469         -46.3344        -99.7457       -0.0306482         140.865
0.641                   -2.82487         159.423         -46.3253        -101.379         -46.3251        -101.378       -0.0310174         140.777
0.642                   -2.87229         158.713          -46.315        -103.002         -46.3147        -103.001       -0.0313922          140.69
0.643                   -2.92032             158         -46.3037        -104.616         -46.3034        -104.615       -0.0317726         140.602
0.644                   -2.96896         157.284         -46.2912        -106.222         -46.2909        -106.221       -0.0321588         140.514
0.645                   -3.01822         156.566         -46.2777        -107.821         -46.2774        -107.819       -0.0325509         140.426
0.646                   -3.06811         155.844          -46.263        -109.413         -46.2626        -109.411        -0.032949         140.337
0.647                   -3.11863         155.119          -46.247        -110.998         -46.2467        -110.996       -0.0333533         140.248
0.648                    -3.1698         154.391         -46.2298        -112.577         -46.2295        -112.576       -0.0337638         140.158
0.649                   -3.22161          153.66         -46.2114        -114.151          -46.211        -114.149       -0.0341807         140.068
0.65                    -3.27408         152.926         -46.1916         -115.72         -46.1912        -115.718        -0.034604         139.978
0.651                   -3.32721         152.189         -46.1704        -117.284           -46.17        -117.282        -0.035034         139.887
0.652                   -3.38102         151.448         -46.1479        -118.845         -46.1475        -118.843       -0.0354708         139.796
0.653                    -3.4355         150.704          -46.124        -120.402         -46.1236          -120.4       -0.0359144         139.705
0.654                   -3.49068         149.957         -46.0986        -121.955         -46.0982        -121.953        -0.036365         139.614
0.655                   -3.54654         149.206         -46.0718        -123.506         -46.0713        -123.504       -0.0368229         139.521
0.656                   -3.60311         148.452         -46.0434        -125.055         -46.0429        -125.052        -0.037288         139.429
0.657                    -3.6604         147.695         -46.0136        -126.601         -46.0131        -126.599       -0.0377606         139.336
0.658                    -3.7184         146.934         -45.9821        -128.146         -45.9816        -128.144       -0.0382408         139.243
0.659                   -3.77714         146.169         -45.9491         -129.69         -45.9486        -129.688       -0.0387288         139.149
0.66                    -3.83662           145.4         -45.9146        -131.233          -45.914        -131.231       -0.0392247         139.055
0.661                   -3.89684         144.628         -45.8783        -132.776         -45.8778        -132.773       -0.0397287         138.961
0.662                   -3.95783         143.852         -45.8405        -134.318         -45.8399        -134.315       -0.0402409         138.866
0.663                   -4.01958         143.072          -45.801         -135.86         -45.8004        -135.858       -0.0407617         138.771
0.664                   -4.08212         142.289         -45.7597        -137.404         -45.7591        -137.401        -0.041291         138.675
0.665                   -4.14545         141.501         -45.7168        -138.947         -45.7162        -138.945       -0.0418291         138.579
0.666                   -4.20958         140.709         -45.6721        -140.492         -45.6715         -140.49       -0.0423762         138.482
0.667                   -4.27452         139.913         -45.6257        -142.039         -45.6251        -142.036       -0.0429325         138.385
0.668                    -4.3403         139.113         -45.5775        -143.587         -45.5769        -143.584       -0.0434982         138.287
0.669                   -4.40691         138.308         -45.5275        -145.137         -45.5269        -145.134       -0.0440735         138.189
0.67                    -4.47437         137.499         -45.4757        -146.689         -45.4751        -146.686       -0.0446586         138.091
0.671                    -4.5427         136.685         -45.4221        -148.244         -45.4214        -148.241       -0.0452537         137.992
0.672                   -4.61191         135.867         -45.3666        -149.801         -45.3659        -149.798       -0.0458591         137.892
0.673                   -4.68201         135.044         -45.3092        -151.362         -45.3086        -151.358       -0.0464749         137.792
0.674                   -4.75302         134.216           -45.25        -152.925         -45.2493        -152.922       -0.0471014         137.692
0.675                   -4.82496         133.383         -45.1888        -154.492         -45.1881        -154.489       -0.0477389         137.591
0.676                   -4.89783         132.545         -45.1258        -156.063          -45.125        -156.059       -0.0483876         137.489
0.677                   -4.97166         131.702         -45.0608        -157.637           -45.06        -157.634       -0.0490477         137.387
0.678                   -5.04647         130.854         -44.9938        -159.215          -44.993        -159.212       -0.0497195         137.285
0.679                   -5.12226             130         -44.9248        -160.798         -44.9241        -160.795       -0.0504034         137.181
0.68                    -5.19907         129.141         -44.8539        -162.385         -44.8531        -162.382       -0.0510995         137.078
0.681                    -5.2769         128.276          -44.781        -163.977         -44.7802        -163.973       -0.0518082         136.973
0.682                   -5.35579         127.405          -44.706        -165.573         -44.7052         -165.57       -0.0525298         136.869
0.683                   -5.43574         126.528          -44.629        -167.175         -44.6282        -167.171       -0.0532645         136.763
0.684                   -5.51679         125.645           -44.55        -168.782         -44.5492        -168.778       -0.0540127         136.657
0.685                   -5.59895         124.756         -44.4689        -170.394         -44.4681         -170.39       -0.0547748          136.55
0.686                   -5.68225          123.86         -44.3858        -172.011          -44.385        -172.007        -0.055551         136.443
0.687                   -5.76671         122.958         -44.3006        -173.634         -44.2998         -173.63       -0.0563417         136.335
0.688                   -5.85236         122.048         -44.2133        -175.263         -44.2125        -175.259       -0.0571472         136.227
0.689                   -5.93923         121.132         -44.1239        -176.898         -44.1231        -176.894        -0.057968         136.117
0.69                    -6.02734         120.208         -44.0324        -178.539         -44.0316        -178.535       -0.0588044         136.007
0.691                   -6.11672         119.277         -43.9388         179.814         -43.9379         179.818       -0.0596568         135.897
0.692                    -6.2074         118.338          -43.843          178.16         -43.8422         178.164       -0.0605256         135.786
0.693                   -6.29942         117.391         -43.7452           176.5         -43.7444         176.504       -0.0614113         135.674
0.694                    -6.3928         116.436         -43.6452         174.833         -43.6444         174.837       -0.0623142         135.561
0.695                   -6.48759         115.472         -43.5431          173.16         -43.5423         173.164       -0.0632348         135.448
0.696                   -6.58382           114.5         -43.4389         171.479         -43.4381         171.483       -0.0641737         135.334