! TOUCHSTONE file generated by CST MICROWAVE STUDIO
! Date and time: Sat Nov 14 20:02:20 2020
! Project name: Scenario_1_Planar_Body_Tissue_Out_of_Line.cst
! Parameters = {dy1=-138.4; L_HA=400; Ltissue=700; MT=2.54; Rad_Dielectric=30; Rad_Lower=7.3; Rad_Upper=30; Wtissue=700; a_HA=580; a_WG=246; b_HA=500; b_WG=121; c_HA=0; c_WG=187; d_feed=85; dx1=693; h_feed=15; h_lower=18; h_upper=40; hfat=3; hgap=25; hmuscle=50; hskin=1.5}
! Header version: 2018
! Port assignment regex: !\s*Touchstone port\s*([0-9]+)\s*=\s*(CST MWS port|CST DS port)\s*([0-9]+|Zmin|Zmax)\s*\(\"(.*)\"\)(\s*mode\s*([0-9]+))?.*
! Touchstone port assignment:
! Touchstone port 1 = CST MWS port 1 ("")
! Touchstone port 2 = CST MWS port 2 ("")
# GHz S DB R 50
0.5                    -0.196176        -121.588         -61.6087        -173.063         -61.6088        -173.061      -0.00777655         151.146
0.501                  -0.197557        -122.012         -61.4938        -174.183         -61.4938         -174.18      -0.00782122         151.081
0.502                  -0.199009        -122.438         -61.3784        -175.312         -61.3783        -175.308      -0.00786698         151.016
0.503                  -0.200536        -122.867         -61.2625         -176.45         -61.2622        -176.445      -0.00791384         150.951
0.504                   -0.20214        -123.298          -61.146        -177.598         -61.1455        -177.592      -0.00796181         150.885
0.505                  -0.203825        -123.733         -61.0289        -178.755         -61.0283        -178.748      -0.00801089          150.82
0.506                  -0.205595         -124.17         -60.9111        -179.923         -60.9104        -179.914      -0.00806111         150.754
0.507                  -0.207452         -124.61         -60.7927           178.9         -60.7919         178.909      -0.00811247         150.688
0.508                  -0.209401        -125.053         -60.6737         177.712         -60.6727         177.722      -0.00816497         150.623
0.509                  -0.211446          -125.5          -60.554         176.513         -60.5529         176.525      -0.00821863         150.557
0.51                   -0.213591        -125.949         -60.4335         175.303         -60.4323         175.316      -0.00827347         150.491
0.511                  -0.215841        -126.402         -60.3123         174.083          -60.311         174.096      -0.00832948         150.425
0.512                  -0.218201        -126.857         -60.1904         172.851          -60.189         172.865      -0.00838667         150.359
0.513                  -0.220675        -127.316         -60.0677         171.607         -60.0662         171.622      -0.00844507         150.293
0.514                  -0.223269        -127.779         -59.9442         170.351         -59.9426         170.367      -0.00850468         150.227
0.515                  -0.225989        -128.244         -59.8198         169.083         -59.8181           169.1      -0.00856551         150.161
0.516                  -0.228842        -128.714         -59.6946         167.802         -59.6928         167.821      -0.00862757         150.094
0.517                  -0.231833        -129.186         -59.5686         166.509         -59.5667         166.528      -0.00869087         150.028
0.518                   -0.23497        -129.663         -59.4416         165.203         -59.4396         165.223      -0.00875543         149.961
0.519                   -0.23826        -130.143         -59.3137         163.884         -59.3116         163.904      -0.00882125         149.895
0.52                   -0.241711        -130.627         -59.1849          162.55         -59.1827         162.572      -0.00888835         149.828
0.521                  -0.245332        -131.115          -59.055         161.204         -59.0528         161.226      -0.00895673         149.761
0.522                  -0.249131        -131.607         -58.9242         159.843         -58.9219         159.865      -0.00902642         149.694
0.523                  -0.253119        -132.102         -58.7924         158.467           -58.79          158.49      -0.00909741         149.627
0.524                  -0.257305        -132.602         -58.6595         157.077         -58.6571         157.101      -0.00916973          149.56
0.525                  -0.261701        -133.106         -58.5255         155.672         -58.5231         155.696      -0.00924339         149.493
0.526                  -0.266319        -133.615         -58.3905         154.251          -58.388         154.276      -0.00931839         149.426
0.527                  -0.271171        -134.128         -58.2543         152.815         -58.2517         152.841      -0.00939475         149.358
0.528                  -0.276271        -134.645          -58.117         151.363         -58.1144         151.389      -0.00947248         149.291
0.529                  -0.281633        -135.167         -57.9785         149.895         -57.9758         149.921       -0.0095516         149.223
0.53                   -0.287273        -135.694         -57.8388          148.41         -57.8361         148.437      -0.00963212         149.156
0.531                  -0.293209        -136.225          -57.698         146.909         -57.6952         146.936      -0.00971405         149.088
0.532                  -0.299457        -136.762         -57.5559          145.39         -57.5531         145.417       -0.0097974          149.02
0.533                  -0.306039        -137.304         -57.4125         143.854         -57.4097         143.881      -0.00988219         148.952
0.534                  -0.312974        -137.851         -57.2679           142.3         -57.2651         142.327      -0.00996844         148.884
0.535                  -0.320285        -138.403          -57.122         140.728         -57.1192         140.755       -0.0100561         148.816
0.536                  -0.327998         -138.96         -56.9748         139.137          -56.972         139.165       -0.0101453         148.748
0.537                  -0.336138        -139.524         -56.8263         137.527         -56.8234         137.555        -0.010236         148.679
0.538                  -0.344734        -140.093         -56.6764         135.899         -56.6736         135.926       -0.0103282         148.611
0.539                  -0.353818        -140.668         -56.5252         134.251         -56.5224         134.278       -0.0104219         148.542
0.54                   -0.363422        -141.249         -56.3727         132.583         -56.3699          132.61       -0.0105172         148.474
0.541                  -0.373582        -141.836         -56.2188         130.895          -56.216         130.922        -0.010614         148.405
0.542                   -0.38434        -142.429         -56.0636         129.186         -56.0607         129.213       -0.0107123         148.336
0.543                  -0.395736        -143.029         -55.9069         127.456         -55.9041         127.483       -0.0108123         148.267
0.544                  -0.407817        -143.635          -55.749         125.705         -55.7462         125.731       -0.0109138         148.198
0.545                  -0.420635        -144.249         -55.5896         123.933         -55.5869         123.959        -0.011017         148.129
0.546                  -0.434243        -144.869         -55.4289         122.139         -55.4262         122.164       -0.0111218          148.06
0.547                  -0.448701        -145.496         -55.2668         120.322         -55.2642         120.346       -0.0112282          147.99
0.548                  -0.464075        -146.131         -55.1035         118.483         -55.1008         118.507       -0.0113363         147.921
0.549                  -0.480434        -146.772         -54.9387          116.62         -54.9362         116.643       -0.0114461         147.851
0.55                   -0.497857        -147.421         -54.7727         114.735         -54.7702         114.757       -0.0115576         147.782
0.551                  -0.516426        -148.078         -54.6054         112.825          -54.603         112.847       -0.0116708         147.712
0.552                  -0.536234        -148.743         -54.4369         110.892         -54.4345         110.912       -0.0117857         147.642
0.553                  -0.557379        -149.415         -54.2671         108.934         -54.2648         108.954       -0.0119023         147.572
0.554                  -0.579971        -150.095         -54.0961         106.952          -54.094          106.97       -0.0120207         147.501
0.555                  -0.604127        -150.782          -53.924         104.944          -53.922         104.961       -0.0121409         147.431
0.556                  -0.629975        -151.478         -53.7509         102.911         -53.7489         102.927       -0.0122629         147.361
0.557                  -0.657657        -152.181         -53.5766         100.852         -53.5748         100.867       -0.0123867          147.29
0.558                  -0.687322        -152.891         -53.4015         98.7673         -53.3997         98.7813       -0.0125124         147.219
0.559                  -0.719136        -153.609         -53.2254         96.6562         -53.2238         96.6689       -0.0126399         147.149
0.56                   -0.753275        -154.334         -53.0484         94.5185          -53.047           94.53       -0.0127692         147.078
0.561                  -0.789931        -155.065         -52.8707          92.354         -52.8695         92.3641       -0.0129005         147.007
0.562                  -0.829309        -155.802         -52.6924         90.1624         -52.6913         90.1712       -0.0130336         146.936
0.563                  -0.871628        -156.545         -52.5134         87.9435         -52.5125         87.9509       -0.0131687         146.864
0.564                  -0.917121        -157.291          -52.334         85.6971         -52.3332         85.7031       -0.0133057         146.793
0.565                  -0.966032        -158.041         -52.1542         83.4231         -52.1536         83.4276       -0.0134447         146.721
0.566                   -1.01862        -158.793         -51.9741         81.1212         -51.9738         81.1243       -0.0135856          146.65
0.567                   -1.07514        -159.544         -51.7939         78.7915         -51.7938         78.7931       -0.0137286         146.578
0.568                   -1.13586        -160.294         -51.6136         76.4337         -51.6138          76.434       -0.0138735         146.506
0.569                   -1.20104        -161.039         -51.4335          74.048          -51.434         74.0468       -0.0140205         146.434
0.57                    -1.27093        -161.777         -51.2536         71.6342         -51.2544         71.6317       -0.0141696         146.361
0.571                   -1.34576        -162.503         -51.0742         69.1925         -51.0752         69.1887       -0.0143207         146.289
0.572                   -1.42572        -163.215         -50.8953         66.7229         -50.8966         66.7178       -0.0144738         146.217
0.573                   -1.51094        -163.908         -50.7171         64.2256         -50.7187         64.2193       -0.0146291         146.144
0.574                   -1.60147        -164.576         -50.5397         61.7008         -50.5417         61.6934       -0.0147865         146.071
0.575                   -1.69726        -165.213         -50.3634         59.1487         -50.3658         59.1402        -0.014946         145.998
0.576                   -1.79811        -165.813         -50.1884         56.5696         -50.1911         56.5603       -0.0151077         145.925
0.577                   -1.90368         -166.37         -50.0147          53.964         -50.0178         53.9538       -0.0152715         145.852
0.578                    -2.0134        -166.876         -49.8426         51.3321         -49.8461         51.3213       -0.0154375         145.779
0.579                   -2.12644        -167.323         -49.6722         48.6746         -49.6761         48.6632       -0.0156057         145.705
0.58                    -2.24174        -167.706         -49.5038         45.9918         -49.5081         45.9801       -0.0157761         145.631
0.581                   -2.35793        -168.017         -49.3375         43.2844         -49.3422         43.2725       -0.0159487         145.558
0.582                   -2.47332        -168.251         -49.1735         40.5531         -49.1786         40.5412       -0.0161235         145.484
0.583                     -2.586        -168.407          -49.012         37.7984         -49.0175         37.7868       -0.0163005          145.41
0.584                   -2.69379        -168.483         -48.8532         35.0211         -48.8591           35.01       -0.0164798         145.335
0.585                   -2.79443        -168.481         -48.6972          32.222         -48.7035         32.2115       -0.0166613         145.261
0.586                    -2.8856        -168.408         -48.5443         29.4019          -48.551         29.3924        -0.016845         145.186
0.587                   -2.96516        -168.273         -48.3946         26.5616         -48.4017         26.5532       -0.0170309         145.111
0.588                   -3.03122        -168.088         -48.2483          23.702         -48.2558          23.695       -0.0172191         145.037
0.589                   -3.08237         -167.87         -48.1057         20.8239         -48.1134         20.8186       -0.0174096         144.961
0.59                    -3.11771        -167.637         -47.9669         17.9282         -47.9749          17.925       -0.0176022         144.886
0.591                     -3.137        -167.406          -47.832          15.016         -47.8404         15.0149       -0.0177971         144.811
0.592                   -3.14061        -167.196         -47.7014         12.0881           -47.71         12.0895       -0.0179942         144.735
0.593                   -3.12947        -167.024         -47.5752         9.14549         -47.5839         9.14957       -0.0181935          144.66
0.594                   -3.10502        -166.904         -47.4536         6.18922         -47.4625          6.1962       -0.0183949         144.584
0.595                   -3.06901        -166.849         -47.3369         3.22032         -47.3459         3.23039       -0.0185985         144.508
0.596                   -3.02341        -166.865         -47.2253        0.239905         -47.2343        0.253205       -0.0188043         144.431
0.597                   -2.97025         -166.96         -47.1191        -2.75085          -47.128        -2.73421       -0.0190121         144.355
0.598                   -2.91151        -167.134         -47.0186        -5.75065         -47.0274        -5.73061       -0.0192221         144.278
0.599                   -2.84902         -167.39          -46.924        -8.75804         -46.9326        -8.73461        -0.019434         144.201
0.6                     -2.78445        -167.723         -46.8358        -11.7714         -46.8441        -11.7446        -0.019648         144.124
0.601                   -2.71923        -168.133         -46.7543        -14.7888         -46.7622        -14.7589        -0.019864         144.047
0.602                   -2.65457        -168.613         -46.6798        -17.8081         -46.6873        -17.7752       -0.0200819          143.97
0.603                   -2.59146         -169.16         -46.6129        -20.8265         -46.6199        -20.7911       -0.0203018         143.892
0.604                   -2.53069        -169.769         -46.5538         -23.841         -46.5602        -23.8035       -0.0205235         143.815
0.605                   -2.47285        -170.434         -46.5032        -26.8477         -46.5089        -26.8086        -0.020747         143.737
0.606                   -2.41841        -171.151         -46.4614        -29.8422         -46.4663        -29.8022       -0.0209723         143.658
0.607                   -2.36768        -171.916         -46.4288        -32.8191         -46.4329         -32.779       -0.0211995          143.58
0.608                   -2.32091        -172.723         -46.4057        -35.7721         -46.4091        -35.7328       -0.0214283         143.502
0.609                   -2.27822        -173.571         -46.3926        -38.6941         -46.3951        -38.6565       -0.0216589         143.423
0.61                     -2.2397        -174.454         -46.3893        -41.5768         -46.3911        -41.5418       -0.0218912         143.344
0.611                   -2.20538        -175.371          -46.396        -44.4111         -46.3971        -44.3796       -0.0221252         143.265
0.612                   -2.17525        -176.318         -46.4123        -47.1871         -46.4128        -47.1599        -0.022361         143.185
0.613                   -2.14929        -177.294         -46.4377        -49.8945         -46.4377        -49.8724       -0.0225985         143.106
0.614                   -2.12747        -178.296         -46.4711        -52.5228         -46.4709        -52.5063       -0.0228378         143.026
0.615                   -2.10972        -179.323         -46.5115        -55.0623         -46.5112        -55.0515       -0.0230789         142.946
0.616                   -2.09601         179.626         -46.5571        -57.5041         -46.5568        -57.4989       -0.0233219         142.865
0.617                   -2.08628         178.552         -46.6059        -59.8413          -46.606        -59.8413       -0.0235669         142.785
0.618                   -2.08049         177.457         -46.6558        -62.0695         -46.6563        -62.0739       -0.0238141         142.704
0.619                   -2.07861         176.341         -46.7042        -64.1873         -46.7052        -64.1951       -0.0240634         142.623
0.62                     -2.0806         175.204         -46.7487        -66.1967         -46.7503        -66.2067       -0.0243152         142.542
0.621                   -2.08645         174.047         -46.7868        -68.1035         -46.7891        -68.1144       -0.0245695          142.46
0.622                   -2.09617         172.871         -46.8162        -69.9166         -46.8192        -69.9272       -0.0248265         142.378
0.623                   -2.10976         171.675         -46.8353        -71.6478         -46.8388        -71.6569       -0.0250865         142.296
0.624                   -2.12725         170.459         -46.8425         -73.311         -46.8465        -73.3178       -0.0253495         142.214
0.625                   -2.14868         169.224         -46.8369        -74.9214         -46.8412        -74.9252       -0.0256159         142.132
0.626                   -2.17411          167.97         -46.8181        -76.4943         -46.8226        -76.4948       -0.0258859         142.049
0.627                   -2.20361         166.695         -46.7863        -78.0443         -46.7908        -78.0415       -0.0261597         141.966
0.628                   -2.23727         165.401         -46.7419        -79.5851         -46.7463        -79.5791       -0.0264375         141.882
0.629                   -2.27519         164.087         -46.6857        -81.1283         -46.6899        -81.1195       -0.0267196         141.799
0.63                    -2.31751         162.753         -46.6187        -82.6837         -46.6226        -82.6725       -0.0270062         141.715
0.631                   -2.36436         161.398         -46.5421        -84.2591         -46.5457         -84.246       -0.0272975          141.63
0.632                    -2.4159         160.022         -46.4571          -85.86         -46.4603        -85.8457       -0.0275938         141.546
0.633                   -2.47232         158.625         -46.3649        -87.4906         -46.3677        -87.4756       -0.0278952         141.461
0.634                   -2.53382         157.206         -46.2667        -89.1533         -46.2691         -89.138        -0.028202         141.376
0.635                   -2.60061         155.766         -46.1635        -90.8494         -46.1656        -90.8341       -0.0285143         141.291
0.636                   -2.67296         154.305         -46.0563        -92.5791          -46.058        -92.5643       -0.0288323         141.205
0.637                   -2.75113         152.821          -45.946        -94.3421         -45.9474         -94.328       -0.0291562         141.119
0.638                    -2.8354         151.315         -45.8332        -96.1374         -45.8343        -96.1242       -0.0294861         141.033
0.639                   -2.92611         149.787         -45.7187        -97.9638         -45.7196        -97.9516       -0.0298222         140.946
0.64                    -3.02359         148.236         -45.6029        -99.8198         -45.6036        -99.8087       -0.0301646         140.859
0.641                   -3.12823         146.663         -45.4864        -101.704          -45.487        -101.694       -0.0305133         140.772
0.642                   -3.24042         145.068         -45.3696        -103.614           -45.37        -103.605       -0.0308686         140.684
0.643                    -3.3606          143.45         -45.2528         -105.55         -45.2531        -105.542       -0.0312305         140.596
0.644                   -3.48925         141.811         -45.1363        -107.509         -45.1365        -107.502       -0.0315992         140.508
0.645                   -3.62686         140.151         -45.0204        -109.489         -45.0205        -109.484       -0.0319746          140.42
0.646                   -3.77399          138.47         -44.9052        -111.491         -44.9053        -111.486       -0.0323569         140.331
0.647                   -3.93121          136.77         -44.7909        -113.512          -44.791        -113.508       -0.0327462         140.241
0.648                   -4.09914          135.05         -44.6778        -115.551         -44.6779        -115.548       -0.0331426         140.152
0.649                   -4.27846         133.313          -44.566        -117.607         -44.5661        -117.605       -0.0335461         140.062
0.65                    -4.46989          131.56         -44.4556         -119.68         -44.4557        -119.678       -0.0339568         139.972
0.651                   -4.67418         129.793         -44.3468        -121.768         -44.3468        -121.767       -0.0343749         139.881
0.652                   -4.89218         128.014         -44.2396        -123.871         -44.2397         -123.87       -0.0348004          139.79
0.653                   -5.12475         126.225         -44.1343        -125.988         -44.1343        -125.987       -0.0352333         139.699
0.654                   -5.37286         124.429         -44.0308        -128.117         -44.0309        -128.116       -0.0356738         139.607
0.655                   -5.63753          122.63         -43.9295        -130.258         -43.9296        -130.258        -0.036122         139.515
0.656                   -5.91987         120.832         -43.8303        -132.411         -43.8304        -132.411        -0.036578         139.422
0.657                   -6.22106         119.039         -43.7334        -134.574         -43.7335        -134.574       -0.0370419         139.329
0.658                    -6.5424         117.257         -43.6389        -136.747          -43.639        -136.747       -0.0375138         139.236
0.659                   -6.88531         115.492         -43.5469        -138.929          -43.547        -138.929       -0.0379938         139.142
0.66                    -7.25131         113.751         -43.4576        -141.118         -43.4577        -141.118        -0.038482         139.048
0.661                    -7.6421         112.044         -43.3709        -143.314          -43.371        -143.314       -0.0389787         138.954
0.662                   -8.05953          110.38         -43.2871        -145.516         -43.2872        -145.516       -0.0394838         138.859
0.663                   -8.50565         108.771         -43.2063        -147.723         -43.2063        -147.723       -0.0399976         138.763
0.664                   -8.98274         107.232         -43.1284        -149.933         -43.1285        -149.933       -0.0405202         138.667
0.665                   -9.49334          105.78         -43.0536        -152.146         -43.0537        -152.146       -0.0410518         138.571
0.666                   -10.0403         104.437          -42.982        -154.359         -42.9821        -154.359       -0.0415925         138.475
0.667                   -10.6267         103.229         -42.9137        -156.572         -42.9137        -156.573       -0.0421426         138.377
0.668                   -11.2562         102.189         -42.8486        -158.784         -42.8486        -158.784       -0.0427021          138.28
0.669                   -11.9327         101.359         -42.7867        -160.993         -42.7867        -160.993       -0.0432713         138.182
0.67                    -12.6602         100.792         -42.7282        -163.196         -42.7282        -163.196       -0.0438504         138.083
0.671                   -13.4431          100.56          -42.673        -165.394          -42.673        -165.394       -0.0444396         137.984
0.672                   -14.2856         100.754          -42.621        -167.584          -42.621        -167.584       -0.0450391         137.885
0.673                   -15.1906           101.5         -42.5723        -169.765         -42.5723        -169.765       -0.0456491         137.785
0.674                   -16.1581         102.963         -42.5268        -171.935         -42.5267        -171.935       -0.0462698         137.684
0.675                    -17.182         105.364         -42.4843        -174.092         -42.4842        -174.092       -0.0469016         137.583
0.676                   -18.2433         108.986         -42.4448        -176.236         -42.4447        -176.236       -0.0475446         137.481
0.677                   -19.2999         114.155         -42.4082        -178.364         -42.4081        -178.364       -0.0481991         137.379
0.678                   -20.2727         121.159         -42.3743         179.525         -42.3742         179.525       -0.0488654         137.277
0.679                   -21.0391         130.043          -42.343         177.432         -42.3429         177.432       -0.0495438         137.174
0.68                    -21.4593         140.326         -42.3141         175.359          -42.314         175.358       -0.0502345          137.07
0.681                   -21.4482         150.928         -42.2873         173.306         -42.2872         173.306       -0.0509379         136.965
0.682                   -21.0381         160.613         -42.2626         171.275         -42.2625         171.275       -0.0516542         136.861
0.683                   -20.3529         168.593         -42.2395         169.267         -42.2394         169.267       -0.0523838         136.755
0.684                   -19.5293         174.695          -42.218         167.283         -42.2179         167.283       -0.0531271         136.649
0.685                   -18.6673         179.126         -42.1978         165.324         -42.1977         165.324       -0.0538843         136.542
0.686                   -17.8244        -177.793         -42.1786          163.39         -42.1785         163.389       -0.0546558         136.435
0.687                   -17.0286        -175.753         -42.1601         161.481           -42.16         161.481        -0.055442         136.327
0.688                   -16.2907        -174.507         -42.1421         159.599          -42.142         159.599       -0.0562433         136.218
0.689                   -15.6128        -173.866         -42.1243         157.743         -42.1242         157.743       -0.0570601         136.109
0.69                    -14.9926        -173.689         -42.1064         155.914         -42.1064         155.914       -0.0578927         135.999
0.691                   -14.4263        -173.873         -42.0882         154.111         -42.0882         154.111       -0.0587417         135.889
0.692                   -13.9094        -174.339         -42.0694         152.335         -42.0693         152.335       -0.0596075         135.777
0.693                   -13.4373        -175.029         -42.0497         150.585         -42.0496         150.585       -0.0604904         135.665
0.694                   -13.0059        -175.899         -42.0288          148.86         -42.0288         148.861       -0.0613911         135.553
0.695                   -12.6113        -176.915         -42.0065         147.161         -42.0065         147.162       -0.0623099         135.439
0.696                   -12.2503        -178.049         -41.9826         145.487         -41.9826         145.487       -0.0632474         135.325