! TOUCHSTONE file generated by CST MICROWAVE STUDIO
! Date and time: Mon Nov 30 08:10:37 2020
! Project name: Scenario_1_Planar_Body_Tissue_Out_of_Line.cst
! Parameters = {dy1=138.4; L_HA=400; Ltissue=700; MT=2.54; Rad_Dielectric=30; Rad_Lower=7.3; Rad_Upper=30; Wtissue=700; a_HA=580; a_WG=246; b_HA=500; b_WG=121; c_HA=0; c_WG=187; d_feed=85; dx1=866; h_feed=15; h_lower=18; h_upper=40; hfat=3; hgap=25; hmuscle=50; hskin=1.5}
! Header version: 2018
! Port assignment regex: !\s*Touchstone port\s*([0-9]+)\s*=\s*(CST MWS port|CST DS port)\s*([0-9]+|Zmin|Zmax)\s*\(\"(.*)\"\)(\s*mode\s*([0-9]+))?.*
! Touchstone port assignment:
! Touchstone port 1 = CST MWS port 1 ("")
! Touchstone port 2 = CST MWS port 2 ("")
# GHz S DB R 50
0.5                    -0.106725         -122.13          -63.976         101.375         -63.9738         101.379      -0.00750665         151.155
0.501                  -0.120165        -122.517         -63.8103         100.229         -63.8064          100.22      -0.00758764          151.09
0.502                  -0.133418        -122.906         -63.6385         99.0563         -63.6331         99.0337      -0.00766898         151.024
0.503                  -0.146486        -123.296         -63.4607         97.8562         -63.4535         97.8197      -0.00775068         150.959
0.504                  -0.159371        -123.688         -63.2764         96.6264         -63.2677         96.5756      -0.00783273         150.894
0.505                  -0.172074        -124.082         -63.0855         95.3651         -63.0753         95.2996      -0.00791512         150.828
0.506                  -0.184598        -124.477         -62.8879         94.0701         -62.8761         93.9895      -0.00799787         150.763
0.507                  -0.196944        -124.874         -62.6833         92.7391         -62.6701         92.6429      -0.00808096         150.697
0.508                  -0.209115        -125.273         -62.4714         91.3695         -62.4569         91.2573      -0.00816441         150.631
0.509                  -0.221113        -125.673         -62.2522         89.9584         -62.2364         89.8299       -0.0082482         150.565
0.51                    -0.23294        -126.076         -62.0255         88.5028         -62.0084         88.3574      -0.00833234           150.5
0.511                  -0.244597        -126.481          -61.791         86.9992         -61.7728         86.8364      -0.00841683         150.434
0.512                  -0.256088        -126.887         -61.5487         85.4438         -61.5295         85.2632      -0.00850167         150.368
0.513                  -0.267415        -127.296         -61.2984         83.8324         -61.2784         83.6336      -0.00858687         150.302
0.514                  -0.278581        -127.708         -61.0401         82.1606         -61.0193         81.9432      -0.00867244         150.235
0.515                  -0.289588        -128.121         -60.7737         80.4234         -60.7523         80.1868      -0.00875836         150.169
0.516                  -0.300439        -128.537         -60.4992         78.6152         -60.4775         78.3591      -0.00884465         150.103
0.517                  -0.311137        -128.955         -60.2168         76.7301         -60.1949         76.4542      -0.00893131         150.036
0.518                  -0.321684        -129.375         -59.9266         74.7618         -59.9047         74.4657      -0.00901835          149.97
0.519                  -0.332085        -129.799         -59.6288         72.7031         -59.6073         72.3867      -0.00910577         149.903
0.52                   -0.342342        -130.224          -59.324         70.5466         -59.3031         70.2099      -0.00919358         149.837
0.521                  -0.352458        -130.653         -59.0127         68.2843         -58.9927         67.9273      -0.00928179          149.77
0.522                  -0.362438        -131.084         -58.6957         65.9078         -58.6769         65.5309       -0.0093704         149.703
0.523                  -0.372285        -131.518         -58.3738         63.4086         -58.3566         63.0122      -0.00945942         149.636
0.524                  -0.382003        -131.955         -58.0485         60.7777         -58.0333         60.3627      -0.00954886         149.569
0.525                  -0.391595        -132.396         -57.7211         58.0065         -57.7083          57.574      -0.00963873         149.502
0.526                  -0.401067        -132.839         -57.3935         55.0867         -57.3835         54.6385      -0.00972903         149.435
0.527                  -0.410423        -133.285          -57.068          52.011         -57.0613         51.5492      -0.00981979         149.368
0.528                  -0.419667        -133.735         -56.7472         48.7735         -56.7441         48.3008      -0.00991101           149.3
0.529                  -0.428804        -134.187         -56.4339         45.3705         -56.4349         44.8901       -0.0100027         149.233
0.53                    -0.43784        -134.644         -56.1316          41.801          -56.137         41.3169       -0.0100949         149.165
0.531                   -0.44678        -135.104         -55.8438         38.0678         -55.8539         37.5846       -0.0101875         149.098
0.532                  -0.455629        -135.567         -55.5744         34.1783         -55.5891         33.7009       -0.0102807          149.03
0.533                  -0.464395        -136.034          -55.327         30.1449         -55.3465         29.6786       -0.0103744         148.962
0.534                  -0.473083        -136.506         -55.1054         25.9853         -55.1295         25.5358       -0.0104686         148.894
0.535                  -0.481699        -136.981         -54.9128         21.7231         -54.9412         21.2957       -0.0105634         148.826
0.536                  -0.490252         -137.46         -54.7517         17.3863         -54.7839          16.986       -0.0106587         148.758
0.537                  -0.498748        -137.943          -54.624         13.0073         -54.6594         12.6382       -0.0107547          148.69
0.538                  -0.507196         -138.43         -54.5305         8.62034         -54.5682         8.28565       -0.0108512         148.621
0.539                  -0.515604        -138.922         -54.4707         4.26049           -54.51         3.96226       -0.0109484         148.553
0.54                   -0.523981        -139.418         -54.4434      -0.0387243         -54.4833       -0.299742       -0.0110462         148.484
0.541                  -0.532336        -139.919         -54.4462        -4.24691          -54.486        -4.47114       -0.0111446         148.416
0.542                   -0.54068        -140.424         -54.4761        -8.33812          -54.515        -8.52707       -0.0112437         148.347
0.543                  -0.549023        -140.935         -54.5295        -12.2917         -54.5668        -12.4478       -0.0113436         148.278
0.544                  -0.557377         -141.45         -54.6025        -16.0928         -54.6376        -16.2188       -0.0114441         148.209
0.545                  -0.565753         -141.97         -54.6912        -19.7316         -54.7238        -19.8311       -0.0115454          148.14
0.546                  -0.574165        -142.496         -54.7916        -23.2036         -54.8214          -23.28       -0.0116474         148.071
0.547                  -0.582626        -143.027         -54.9003        -26.5083         -54.9271        -26.5651       -0.0117503         148.001
0.548                  -0.591151        -143.564         -55.0138        -29.6486         -55.0376        -29.6893       -0.0118539         147.932
0.549                  -0.599756        -144.106         -55.1294        -32.6302         -55.1501        -32.6577       -0.0119584         147.863
0.55                   -0.608457        -144.654         -55.2444        -35.4605         -55.2621        -35.4777       -0.0120638         147.793
0.551                  -0.617272        -145.208         -55.3567        -38.1481         -55.3715        -38.1575         -0.01217         147.723
0.552                   -0.62622        -145.769         -55.4645        -40.7024         -55.4766        -40.7061       -0.0122772         147.653
0.553                  -0.635322        -146.335         -55.5663        -43.1332         -55.5759        -43.1331       -0.0123853         147.583
0.554                  -0.644599        -146.909          -55.661        -45.4502         -55.6683        -45.4479       -0.0124944         147.513
0.555                  -0.654075        -147.489         -55.7475         -47.663         -55.7526        -47.6597       -0.0126045         147.443
0.556                  -0.663776        -148.075         -55.8251         -49.781         -55.8283        -49.7777       -0.0127156         147.373
0.557                  -0.673727        -148.669         -55.8933        -51.8129         -55.8948        -51.8105       -0.0128278         147.302
0.558                  -0.683959        -149.271         -55.9516        -53.7671         -55.9516        -53.7663       -0.0129411         147.232
0.559                  -0.694503        -149.879         -55.9998        -55.6516         -55.9985        -55.6528       -0.0130556         147.161
0.56                   -0.705391        -150.496         -56.0377        -57.4737         -56.0352        -57.4773       -0.0131712          147.09
0.561                  -0.716662         -151.12         -56.0651        -59.2404         -56.0616        -59.2464        -0.013288         147.019
0.562                  -0.728352        -151.752         -56.0821        -60.9579         -56.0778        -60.9667       -0.0134061         146.948
0.563                  -0.740505        -152.393         -56.0887        -62.6323         -56.0837        -62.6438       -0.0135255         146.877
0.564                  -0.753166        -153.042          -56.085        -64.2692         -56.0794        -64.2834       -0.0136462         146.805
0.565                  -0.766384          -153.7          -56.071        -65.8738          -56.065        -65.8905       -0.0137682         146.734
0.566                  -0.780212        -154.367          -56.047        -67.4507         -56.0406          -67.47       -0.0138917         146.662
0.567                  -0.794706        -155.044          -56.013        -69.0046         -56.0064        -69.0262       -0.0140167          146.59
0.568                  -0.809929        -155.729         -55.9693        -70.5396         -55.9626        -70.5633       -0.0141431         146.518
0.569                  -0.825947        -156.425         -55.9161        -72.0596         -55.9093        -72.0852       -0.0142711         146.446
0.57                   -0.842832        -157.131         -55.8536        -73.5684         -55.8469        -73.5956       -0.0144007         146.374
0.571                  -0.860663        -157.846         -55.7821        -75.0692         -55.7754        -75.0979       -0.0145319         146.302
0.572                  -0.879524        -158.572         -55.7017        -76.5655         -55.6951        -76.5954       -0.0146649         146.229
0.573                  -0.899506        -159.309         -55.6126        -78.0603         -55.6062        -78.0911       -0.0147995         146.157
0.574                  -0.920708        -160.057         -55.5152        -79.5564          -55.509        -79.5879        -0.014936         146.084
0.575                  -0.943237        -160.816         -55.4097        -81.0566         -55.4038        -81.0886       -0.0150743         146.011
0.576                  -0.967208        -161.586         -55.2963        -82.5636         -55.2907        -82.5958       -0.0152146         145.938
0.577                  -0.992747        -162.367         -55.1753        -84.0799         -55.1699        -84.1121       -0.0153568         145.865
0.578                   -1.01999         -163.16         -55.0469        -85.6078         -55.0418        -85.6398        -0.015501         145.791
0.579                   -1.04908        -163.964         -54.9114        -87.1498         -54.9066        -87.1814       -0.0156473         145.718
0.58                    -1.08017         -164.78          -54.769         -88.708         -54.7646         -88.739       -0.0157957         145.644
0.581                   -1.11344        -165.607           -54.62        -90.2847          -54.616        -90.3149       -0.0159463          145.57
0.582                   -1.14907        -166.446         -54.4647        -91.8818          -54.461        -91.9111       -0.0160992         145.496
0.583                   -1.18724        -167.297         -54.3033        -93.5016            -54.3        -93.5298       -0.0162545         145.422
0.584                   -1.22818        -168.158         -54.1362        -95.1458         -54.1332        -95.1728       -0.0164121         145.348
0.585                    -1.2721         -169.03         -53.9636        -96.8166         -53.9608        -96.8423       -0.0165722         145.273
0.586                   -1.31924        -169.912         -53.7857        -98.5158         -53.7833          -98.54       -0.0167347         145.199
0.587                   -1.36986        -170.804          -53.603        -100.245         -53.6008        -100.268       -0.0168999         145.124
0.588                    -1.4242        -171.704         -53.4156        -102.007         -53.4138        -102.028       -0.0170678         145.049
0.589                   -1.48257        -172.613          -53.224        -103.802         -53.2224        -103.821       -0.0172383         144.974
0.59                    -1.54523        -173.527         -53.0284        -105.632         -53.0271         -105.65       -0.0174116         144.898
0.591                    -1.6125        -174.447         -52.8293          -107.5         -52.8282        -107.516       -0.0175878         144.823
0.592                   -1.68466        -175.369         -52.6269        -109.406          -52.626        -109.421       -0.0177669         144.747
0.593                   -1.76202        -176.292         -52.4217        -111.353          -52.421        -111.365        -0.017949         144.671
0.594                   -1.84489        -177.214         -52.2141        -113.341         -52.2135        -113.352       -0.0181341         144.595
0.595                   -1.93353        -178.131         -52.0044        -115.371         -52.0039        -115.381       -0.0183223         144.519
0.596                   -2.02823         -179.04         -51.7931        -117.446         -51.7928        -117.454       -0.0185137         144.443
0.597                   -2.12919        -179.936         -51.5807        -119.565         -51.5804        -119.572       -0.0187082         144.366
0.598                   -2.23662         179.183         -51.3676        -121.731         -51.3675        -121.736       -0.0189061         144.289
0.599                   -2.35063         178.325         -51.1544        -123.943         -51.1543        -123.946       -0.0191072         144.213
0.6                     -2.47126         177.493         -50.9415        -126.201         -50.9414        -126.204       -0.0193117         144.135
0.601                   -2.59844         176.694         -50.7295        -128.507         -50.7294        -128.509       -0.0195196         144.058
0.602                   -2.73199         175.934         -50.5189        -130.861         -50.5188        -130.861       -0.0197309         143.981
0.603                   -2.87158         175.221         -50.3102        -133.261         -50.3102         -133.26       -0.0199457         143.903
0.604                   -3.01669         174.561         -50.1041        -135.707          -50.104        -135.706       -0.0201639         143.825
0.605                   -3.16662          173.96          -49.901        -138.199          -49.901        -138.197       -0.0203857         143.747
0.606                   -3.32046         173.427         -49.7016        -140.734         -49.7015        -140.732       -0.0206109         143.669
0.607                   -3.47705         172.967         -49.5064        -143.312         -49.5063         -143.31       -0.0208397          143.59
0.608                   -3.63502         172.586          -49.316        -145.931         -49.3158        -145.928        -0.021072         143.511
0.609                   -3.79277         172.288         -49.1307        -148.587         -49.1305        -148.584       -0.0213078         143.432
0.61                     -3.9485         172.076         -48.9512        -151.279          -48.951        -151.276       -0.0215471         143.353
0.611                   -4.10024         171.951         -48.7779        -154.003         -48.7777        -154.001       -0.0217898         143.274
0.612                   -4.24594         171.911         -48.6111        -156.756         -48.6109        -156.754        -0.022036         143.194
0.613                   -4.38349         171.952         -48.4512        -159.534          -48.451        -159.532       -0.0222856         143.115
0.614                   -4.51089         172.067         -48.2986        -162.333         -48.2983        -162.331       -0.0225386         143.035
0.615                   -4.62628         172.246         -48.1533        -165.149         -48.1531        -165.148        -0.022795         142.955
0.616                   -4.72806         172.478         -48.0157        -167.978         -48.0155        -167.978       -0.0230546         142.874
0.617                   -4.81497         172.749         -47.8856        -170.815         -47.8855        -170.815       -0.0233175         142.793
0.618                   -4.88619         173.044         -47.7633        -173.656         -47.7632        -173.657       -0.0235837         142.713
0.619                   -4.94132         173.346         -47.6485        -176.497         -47.6485        -176.499       -0.0238531         142.632
0.62                    -4.98046          173.64         -47.5412        -179.334         -47.5412        -179.336       -0.0241256          142.55
0.621                    -5.0041          173.91         -47.4411         177.838         -47.4413         177.836       -0.0244012         142.469
0.622                   -5.01314         174.142         -47.3481         175.023         -47.3483          175.02         -0.02468         142.387
0.623                    -5.0088         174.324         -47.2617         172.223          -47.262          172.22       -0.0249619         142.305
0.624                    -4.9925         174.447         -47.1816         169.443          -47.182         169.439       -0.0252469         142.222
0.625                   -4.96583         174.501         -47.1073         166.685         -47.1079          166.68        -0.025535          142.14
0.626                   -4.93043         174.481         -47.0386         163.951         -47.0392         163.947       -0.0258262         142.057
0.627                   -4.88795         174.383         -46.9747         161.244         -46.9755          161.24       -0.0261206         141.974
0.628                   -4.83997         174.205         -46.9154         158.566         -46.9163         158.561       -0.0264182         141.891
0.629                   -4.78798         173.947           -46.86         155.918          -46.861         155.913        -0.026719         141.807
0.63                    -4.73335         173.608         -46.8081         153.301         -46.8092         153.296       -0.0270232         141.723
0.631                    -4.6773         173.192         -46.7592         150.716         -46.7604         150.711       -0.0273308         141.639
0.632                   -4.62092         172.699         -46.7128         148.162          -46.714         148.158       -0.0276419         141.555
0.633                   -4.56517         172.133         -46.6684         145.641         -46.6697         145.637       -0.0279567          141.47
0.634                   -4.51087         171.496         -46.6255         143.152         -46.6269         143.148       -0.0282751         141.385
0.635                   -4.45872         170.791         -46.5837         140.695         -46.5851         140.691       -0.0285975           141.3
0.636                   -4.40933         170.022         -46.5426         138.268         -46.5441         138.265       -0.0289238         141.214
0.637                    -4.3632         169.192         -46.5018         135.872         -46.5033         135.869       -0.0292543         141.128
0.638                   -4.32077         168.302         -46.4609         133.504         -46.4624         133.502       -0.0295891         141.042
0.639                   -4.28242         167.355         -46.4196         131.164         -46.4211         131.162       -0.0299284         140.956
0.64                    -4.24847         166.353         -46.3775         128.851          -46.379         128.849       -0.0302724         140.869
0.641                   -4.21919         165.299         -46.3344         126.562         -46.3359         126.561       -0.0306212         140.782
0.642                   -4.19485         164.193           -46.29         124.296         -46.2914         124.296        -0.030975         140.694
0.643                   -4.17566         163.037          -46.244         122.053         -46.2455         122.052        -0.031334         140.606
0.644                   -4.16183          161.83         -46.1963         119.829         -46.1977         119.829       -0.0316983         140.518
0.645                   -4.15353         160.573         -46.1467         117.623         -46.1481         117.624       -0.0320683          140.43
0.646                   -4.15091         159.264          -46.095         115.434         -46.0963         115.435        -0.032444         140.341
0.647                   -4.15407         157.903          -46.041          113.26         -46.0423         113.261       -0.0328257         140.252
0.648                   -4.16299         156.486         -45.9847         111.098         -45.9859           111.1       -0.0332135         140.162
0.649                   -4.17751          155.01          -45.926         108.948         -45.9271          108.95       -0.0336077         140.072
0.65                    -4.19719         153.471         -45.8647         106.806         -45.8657         106.808       -0.0340085         139.982
0.651                   -4.22111         151.863         -45.8009         104.672         -45.8018         104.675        -0.034416         139.892
0.652                   -4.24769         150.183         -45.7345         102.544         -45.7354         102.546       -0.0348304         139.801
0.653                   -4.27443         148.429         -45.6655         100.419         -45.6663         100.421        -0.035252         139.709
0.654                   -4.29808         146.614         -45.5939         98.2958         -45.5946         98.2983       -0.0356809         139.618
0.655                    -4.3156         144.762         -45.5198         96.1729         -45.5204         96.1755       -0.0361173         139.526
0.656                   -4.32642         142.919         -45.4431         94.0484         -45.4436          94.051       -0.0365615         139.433
0.657                   -4.33482         141.133          -45.364         91.9207         -45.3645         91.9232       -0.0370136          139.34
0.658                   -4.34968         139.429         -45.2826         89.7882         -45.2829         89.7906       -0.0374738         139.247
0.659                   -4.38029          137.79         -45.1989         87.6493         -45.1992         87.6515       -0.0379423         139.153
0.66                    -4.43201         136.172         -45.1132         85.5025         -45.1134         85.5045       -0.0384193         139.059
0.661                   -4.50553         134.531         -45.0255         83.3462         -45.0256         83.3481       -0.0389051         138.964
0.662                   -4.59888         132.839         -44.9361         81.1792         -44.9361         81.1808       -0.0393998         138.869
0.663                   -4.70961          131.08          -44.845              79          -44.845         79.0014       -0.0399036         138.774
0.664                    -4.8358         129.252         -44.7526         76.8075         -44.7526         76.8087       -0.0404167         138.678
0.665                   -4.97633         127.356         -44.6591         74.6007          -44.659         74.6016       -0.0409394         138.582
0.666                   -5.13078         125.397         -44.5646         72.3785         -44.5645         72.3791       -0.0414719         138.485
0.667                   -5.29924         123.376         -44.4695         70.1401         -44.4693         70.1405       -0.0420143         138.388
0.668                   -5.48216         121.298          -44.374          67.885         -44.3738         67.8851       -0.0425669          138.29
0.669                   -5.68028         119.166         -44.2784         65.6125         -44.2782         65.6123       -0.0431299         138.192
0.67                    -5.89453         116.982          -44.183         63.3225         -44.1828          63.322       -0.0437035         138.094
0.671                   -6.12598         114.749         -44.0881         61.0146         -44.0879         61.0139        -0.044288         137.994
0.672                   -6.37589         112.468          -43.994         58.6891         -43.9938         58.6881       -0.0448836         137.895
0.673                   -6.64564          110.14          -43.901         56.3461         -43.9008          56.345       -0.0454905         137.795
0.674                   -6.93678         107.769         -43.8095         53.9861         -43.8093         53.9849       -0.0461091         137.694
0.675                   -7.25101         105.354         -43.7197           51.61         -43.7195         51.6086       -0.0467394         137.593
0.676                   -7.59024         102.898          -43.632         49.2185         -43.6318         49.2171       -0.0473819         137.491
0.677                   -7.95659         100.402         -43.5466          46.813         -43.5465         46.8115       -0.0480367         137.389
0.678                   -8.35245         97.8678         -43.4639         44.3947         -43.4637         44.3931       -0.0487041         137.286
0.679                   -8.78053         95.2967          -43.384         41.9652         -43.3839         41.9637       -0.0493845         137.183
0.68                    -9.24394         92.6902         -43.3073         39.5263         -43.3072         39.5249        -0.050078         137.079
0.681                    -9.7463         90.0495         -43.2338         37.0801         -43.2338         37.0787        -0.050785         136.975
0.682                   -10.2918         87.3757         -43.1639         34.6286         -43.1639         34.6274       -0.0515058          136.87
0.683                   -10.8855         84.6695         -43.0976         32.1741         -43.0976          32.173       -0.0522408         136.764
0.684                   -11.5336         81.9309         -43.0351          29.719         -43.0351         29.7181       -0.0529901         136.658
0.685                   -12.2434         79.1591         -42.9763         27.2657         -42.9764         27.2651       -0.0537542         136.551
0.686                   -13.0245         76.3519         -42.9215         24.8168         -42.9215         24.8164       -0.0545333         136.444
0.687                   -13.8889         73.5049         -42.8704         22.3748         -42.8705         22.3746       -0.0553279         136.336
0.688                   -14.8525         70.6106         -42.8231          19.942         -42.8232         19.9421       -0.0561383         136.227
0.689                   -15.9371         67.6556         -42.7794         17.5211         -42.7795         17.5214       -0.0569649         136.118
0.69                     -17.173         64.6172         -42.7393         15.1142         -42.7394         15.1148        -0.057808         136.008
0.691                   -18.6053          61.455         -42.7025         12.7237         -42.7026         12.7246       -0.0586681         135.897
0.692                    -20.304         58.0928         -42.6689         10.3517          -42.669         10.3528       -0.0595456         135.786
0.693                   -22.3879         54.3721         -42.6382               8         -42.6384         8.00138       -0.0604408         135.674
0.694                   -25.0822         49.9098         -42.6102          5.6704         -42.6103         5.67201       -0.0613542         135.561
0.695                   -28.8963         43.4999         -42.5846         3.36443         -42.5847         3.36625       -0.0622864         135.448
0.696                   -35.3883          28.676          -42.561         1.08342         -42.5611         1.08544       -0.0632376         135.334