! TOUCHSTONE file generated by CST MICROWAVE STUDIO
! Date and time: Fri Dec 11 13:52:32 2020
! Project name: Scenario_1_Planar_Body_Tissue_Out_of_Line_v2.cst
! Parameters = {dy1=-328.7; L_HA=400; Ltissue=700; MT=2.54; Rad_Dielectric=30; Rad_Lower=7.3; Rad_Upper=30; Wtissue=700; a_HA=580; a_WG=246; b_HA=500; b_WG=121; c_HA=0; c_WG=187; d_feed=85; dx1=520; h_feed=15; h_lower=18; h_upper=40; hfat=3; hgap=25; hmuscle=50; hskin=1.5}
! Header version: 2018
! Port assignment regex: !\s*Touchstone port\s*([0-9]+)\s*=\s*(CST MWS port|CST DS port)\s*([0-9]+|Zmin|Zmax)\s*\(\"(.*)\"\)(\s*mode\s*([0-9]+))?.*
! Touchstone port assignment:
! Touchstone port 1 = CST MWS port 1 ("")
! Touchstone port 2 = CST MWS port 2 ("")
# GHz S DB R 50
0.5                    -0.103202        -121.969         -65.1571        -82.4486         -65.1574        -82.4464      -0.00738623         151.152
0.501                  -0.107833        -122.427         -64.9397        -83.5429           -64.94        -83.5409      -0.00745661         151.087
0.502                  -0.112695        -122.888         -64.7197         -84.659         -64.7199        -84.6571      -0.00752797         151.021
0.503                  -0.117802        -123.352         -64.4969        -85.7974         -64.4971        -85.7956      -0.00760032         150.956
0.504                  -0.123165        -123.819         -64.2714        -86.9588         -64.2716        -86.9572      -0.00767366          150.89
0.505                  -0.128797        -124.288         -64.0431        -88.1439         -64.0434        -88.1424      -0.00774798         150.825
0.506                  -0.134713        -124.761         -63.8121        -89.3533         -63.8124        -89.3519      -0.00782329         150.759
0.507                  -0.140927        -125.236         -63.5783        -90.5877         -63.5786        -90.5864      -0.00789958         150.693
0.508                  -0.147456        -125.715         -63.3418        -91.8479         -63.3421        -91.8468      -0.00797686         150.627
0.509                  -0.154319        -126.196         -63.1026        -93.1347         -63.1029        -93.1337      -0.00805512         150.561
0.51                   -0.161533        -126.681         -62.8606         -94.449         -62.8609        -94.4481      -0.00813438         150.496
0.511                  -0.169121        -127.169         -62.6159        -95.7915         -62.6162        -95.7907      -0.00821462         150.429
0.512                  -0.177105         -127.66         -62.3685        -97.1633         -62.3688        -97.1626      -0.00829585         150.363
0.513                  -0.185509        -128.154         -62.1184        -98.5653         -62.1187        -98.5646      -0.00837807         150.297
0.514                  -0.194359        -128.652         -61.8657        -99.9984          -61.866        -99.9978      -0.00846129         150.231
0.515                  -0.203684        -129.152         -61.6104        -101.464         -61.6107        -101.463       -0.0085455         150.165
0.516                  -0.213514        -129.656         -61.3525        -102.962         -61.3529        -102.962       -0.0086307         150.098
0.517                  -0.223883        -130.164         -61.0923        -104.495         -61.0926        -104.495      -0.00871691         150.032
0.518                  -0.234826        -130.674         -60.8296        -106.064         -60.8299        -106.064      -0.00880411         149.965
0.519                   -0.24638        -131.188         -60.5646         -107.67          -60.565        -107.669      -0.00889232         149.898
0.52                   -0.258588        -131.706         -60.2975        -109.313         -60.2978        -109.313      -0.00898154         149.832
0.521                  -0.271493        -132.226         -60.0283        -110.996         -60.0286        -110.996      -0.00907176         149.765
0.522                  -0.285142        -132.749         -59.7572         -112.72         -59.7575         -112.72        -0.009163         149.698
0.523                  -0.299584        -133.275         -59.4843        -114.486         -59.4847        -114.486      -0.00925526         149.631
0.524                  -0.314873        -133.805         -59.2098        -116.295         -59.2102        -116.295      -0.00934853         149.564
0.525                  -0.331063        -134.336         -58.9341        -118.149         -58.9345        -118.149      -0.00944284         149.497
0.526                  -0.348214         -134.87         -58.6571         -120.05         -58.6575        -120.049      -0.00953817         149.429
0.527                  -0.366385        -135.406         -58.3793        -121.997         -58.3797        -121.997      -0.00963453         149.362
0.528                  -0.385639        -135.944         -58.1009        -123.994         -58.1014        -123.994      -0.00973193         149.294
0.529                  -0.406037        -136.483         -57.8223        -126.041         -57.8227        -126.041      -0.00983038         149.227
0.53                   -0.427642        -137.023         -57.5437        -128.139         -57.5441        -128.139      -0.00992987         149.159
0.531                  -0.450515        -137.563         -57.2656         -130.29          -57.266         -130.29       -0.0100304         149.092
0.532                  -0.474713        -138.103         -56.9883        -132.494         -56.9888        -132.494        -0.010132         149.024
0.533                  -0.500286        -138.641         -56.7124        -134.753         -56.7128        -134.753       -0.0102347         148.956
0.534                  -0.527277        -139.177         -56.4383        -137.067         -56.4387        -137.066       -0.0103384         148.888
0.535                  -0.555715         -139.71         -56.1664        -139.436         -56.1669        -139.435       -0.0104432          148.82
0.536                  -0.585613        -140.239         -55.8975         -141.86         -55.8979         -141.86       -0.0105491         148.752
0.537                  -0.616962        -140.761         -55.6319        -144.341         -55.6324         -144.34       -0.0106561         148.683
0.538                  -0.649728        -141.277         -55.3704        -146.876         -55.3709        -146.875       -0.0107642         148.615
0.539                  -0.683843        -141.785         -55.1136        -149.466          -55.114        -149.465       -0.0108734         148.546
0.54                   -0.719199        -142.282          -54.862        -152.109         -54.8624        -152.108       -0.0109837         148.478
0.541                  -0.755647        -142.767         -54.6163        -154.803         -54.6167        -154.802       -0.0110951         148.409
0.542                  -0.792985         -143.24         -54.3771        -157.546         -54.3775        -157.545       -0.0112076          148.34
0.543                  -0.830961        -143.698         -54.1451        -160.336         -54.1455        -160.335       -0.0113212         148.271
0.544                  -0.869265         -144.14         -53.9209        -163.169         -53.9213        -163.168        -0.011436         148.202
0.545                  -0.907537        -144.565          -53.705        -166.043         -53.7054        -166.041       -0.0115519         148.133
0.546                  -0.945365        -144.973          -53.498        -168.952         -53.4983        -168.951        -0.011669         148.064
0.547                  -0.982303        -145.364         -53.3002        -171.892         -53.3005        -171.891       -0.0117872         147.995
0.548                   -1.01788        -145.737         -53.1121        -174.859         -53.1124        -174.858       -0.0119065         147.925
0.549                   -1.05161        -146.094         -52.9341        -177.847         -52.9344        -177.846        -0.012027         147.856
0.55                    -1.08303        -146.437         -52.7663         179.149         -52.7665          179.15       -0.0121486         147.786
0.551                   -1.11172        -146.767         -52.6089         176.135         -52.6091         176.136       -0.0122714         147.716
0.552                   -1.13732        -147.088         -52.4619         173.116         -52.4621         173.118       -0.0123953         147.647
0.553                   -1.15956        -147.403         -52.3252         170.099         -52.3254         170.101       -0.0125203         147.577
0.554                   -1.17824        -147.716         -52.1988         167.089          -52.199          167.09       -0.0126465         147.507
0.555                   -1.19329        -148.029         -52.0824         164.091         -52.0826         164.092       -0.0127738         147.436
0.556                   -1.20476        -148.348         -51.9757          161.11         -51.9758         161.112       -0.0129021         147.366
0.557                   -1.21278        -148.676         -51.8782         158.152         -51.8783         158.153       -0.0130315         147.296
0.558                   -1.21757        -149.015         -51.7895          155.22         -51.7896         155.222       -0.0131619         147.225
0.559                   -1.21945        -149.369         -51.7091         152.319         -51.7092          152.32       -0.0132933         147.154
0.56                    -1.21877        -149.741         -51.6365         149.452         -51.6366         149.453       -0.0134256         147.084
0.561                   -1.21592        -150.131          -51.571         146.622          -51.571         146.623       -0.0135588         147.013
0.562                   -1.21131        -150.541          -51.512         143.831          -51.512         143.832       -0.0136927         146.942
0.563                   -1.20533        -150.972         -51.4588         141.081         -51.4589         141.082       -0.0138273          146.87
0.564                   -1.19837        -151.425          -51.411         138.374          -51.411         138.375       -0.0139625         146.799
0.565                    -1.1908        -151.899         -51.3677         135.711         -51.3678         135.712       -0.0140981         146.728
0.566                   -1.18294        -152.393         -51.3285         133.093         -51.3286         133.094        -0.014234         146.656
0.567                   -1.17508        -152.909         -51.2928         130.519         -51.2928          130.52       -0.0143698         146.585
0.568                   -1.16748        -153.444         -51.2599          127.99         -51.2599         127.991       -0.0145056         146.513
0.569                   -1.16035        -153.997         -51.2294         125.506         -51.2294         125.506       -0.0146409         146.441
0.57                    -1.15389        -154.569         -51.2007         123.064         -51.2007         123.065       -0.0147755         146.369
0.571                   -1.14823        -155.158         -51.1733         120.666         -51.1733         120.666       -0.0149092         146.297
0.572                    -1.1435        -155.763          -51.147         118.309          -51.147         118.309       -0.0150416         146.224
0.573                   -1.13981        -156.384         -51.1211         115.993         -51.1211         115.993       -0.0151726         146.152
0.574                   -1.13723        -157.019         -51.0954         113.715         -51.0954         113.715       -0.0153018         146.079
0.575                   -1.13582        -157.668         -51.0696         111.476         -51.0696         111.476       -0.0154292         146.006
0.576                   -1.13564         -158.33         -51.0433         109.272         -51.0433         109.272       -0.0155548         145.934
0.577                   -1.13673        -159.005         -51.0162         107.103         -51.0162         107.103        -0.015679          145.86
0.578                    -1.1391        -159.691         -50.9881         104.967         -50.9881         104.967       -0.0158021         145.787
0.579                   -1.14279        -160.389         -50.9588         102.863         -50.9588         102.862       -0.0159251         145.714
0.58                    -1.14781        -161.098         -50.9281         100.788         -50.9281         100.787       -0.0160488          145.64
0.581                   -1.15417        -161.818         -50.8958         98.7406         -50.8958         98.7403       -0.0161745         145.566
0.582                    -1.1619        -162.548         -50.8618         96.7199         -50.8618         96.7196       -0.0163035         145.492
0.583                     -1.171        -163.288         -50.8259         94.7241         -50.8259         94.7237       -0.0164372         145.418
0.584                   -1.18148        -164.038          -50.788         92.7514          -50.788          92.751       -0.0165765         145.343
0.585                   -1.19336        -164.798          -50.748         90.8003          -50.748         90.7999       -0.0167224         145.269
0.586                   -1.20665        -165.567         -50.7058         88.8694         -50.7059         88.8689       -0.0168753         145.194
0.587                   -1.22138        -166.346         -50.6615          86.957         -50.6615         86.9565       -0.0170352         145.119
0.588                   -1.23755        -167.134         -50.6148         85.0618         -50.6149         85.0613       -0.0172021         145.044
0.589                    -1.2552        -167.932         -50.5658         83.1823         -50.5659         83.1818       -0.0173755         144.969
0.59                    -1.27435        -168.739         -50.5145         81.3172         -50.5145         81.3167       -0.0175549         144.893
0.591                   -1.29503        -169.555         -50.4607          79.465         -50.4608         79.4645       -0.0177396         144.818
0.592                   -1.31727         -170.38         -50.4046         77.6245         -50.4047          77.624        -0.017929         144.742
0.593                   -1.34111        -171.214         -50.3461         75.7944         -50.3462         75.7939       -0.0181227         144.666
0.594                   -1.36659        -172.058         -50.2851         73.9735         -50.2852          73.973         -0.01832          144.59
0.595                   -1.39377        -172.911         -50.2218         72.1605         -50.2219           72.16       -0.0185207         144.514
0.596                   -1.42268        -173.774         -50.1561         70.3543         -50.1563         70.3538       -0.0187243         144.437
0.597                   -1.45338        -174.646         -50.0881         68.5537         -50.0882         68.5533       -0.0189305         144.361
0.598                   -1.48594        -175.527         -50.0178         66.7577         -50.0179         66.7572       -0.0191393         144.284
0.599                   -1.52041        -176.418         -49.9452         64.9651         -49.9453         64.9646       -0.0193504         144.207
0.6                     -1.55687        -177.319         -49.8703         63.1748         -49.8705         63.1744       -0.0195638          144.13
0.601                    -1.5954        -178.228         -49.7933          61.386         -49.7934         61.3856       -0.0197794         144.053
0.602                   -1.63608        -179.148         -49.7142         59.5975         -49.7143         59.5971       -0.0199971         143.975
0.603                   -1.67898         179.923         -49.6329         57.8084         -49.6331         57.8081        -0.020217         143.897
0.604                   -1.72421         178.985         -49.5497         56.0178         -49.5498         56.0175       -0.0204391         143.819
0.605                   -1.77187         178.037         -49.4645         54.2247         -49.4646         54.2245       -0.0206634         143.741
0.606                   -1.82205          177.08         -49.3774         52.4283         -49.3776         52.4281       -0.0208899         143.663
0.607                   -1.87487         176.113         -49.2886         50.6278         -49.2887         50.6276       -0.0211187         143.585
0.608                   -1.93044         175.138          -49.198         48.8222         -49.1981          48.822       -0.0213498         143.506
0.609                    -1.9889         174.153         -49.1058         47.0107         -49.1059         47.0106       -0.0215834         143.427
0.61                    -2.05036          173.16          -49.012         45.1927         -49.0122         45.1926       -0.0218194         143.348
0.611                   -2.11497         172.158         -48.9169         43.3673          -48.917         43.3673       -0.0220579         143.269
0.612                   -2.18288         171.148         -48.8203         41.5339         -48.8205         41.5339        -0.022299         143.189
0.613                   -2.25422          170.13         -48.7226         39.6917         -48.7227         39.6918       -0.0225427         143.109
0.614                   -2.32916         169.105         -48.6237         37.8402         -48.6238         37.8402       -0.0227892         143.029
0.615                   -2.40787         168.073         -48.5238         35.9786          -48.524         35.9787       -0.0230385         142.949
0.616                    -2.4905         167.034         -48.4231         34.1064         -48.4232         34.1065       -0.0232906         142.869
0.617                   -2.57724          165.99         -48.3216         32.2231         -48.3217         32.2233       -0.0235457         142.788
0.618                   -2.66827         164.941         -48.2195         30.3282         -48.2196         30.3284       -0.0238038         142.707
0.619                   -2.76377         163.888         -48.1168         28.4212         -48.1169         28.4214        -0.024065         142.626
0.62                    -2.86394         162.832         -48.0139         26.5017          -48.014          26.502       -0.0243294         142.545
0.621                   -2.96897         161.775         -47.9107         24.5694         -47.9108         24.5697        -0.024597         142.463
0.622                   -3.07905         160.716         -47.8074         22.6239         -47.8075         22.6243       -0.0248679         142.381
0.623                   -3.19439         159.658         -47.7043         20.6651         -47.7044         20.6655       -0.0251423         142.299
0.624                   -3.31519         158.603         -47.6014         18.6928         -47.6015         18.6932       -0.0254201         142.217
0.625                   -3.44164         157.551         -47.4989         16.7067          -47.499         16.7071       -0.0257015         142.134
0.626                   -3.57394         156.506          -47.397          14.707         -47.3971         14.7074       -0.0259865         142.051
0.627                   -3.71227         155.468         -47.2958         12.6935         -47.2959         12.6939       -0.0262752         141.968
0.628                   -3.85683         154.441         -47.1956         10.6664         -47.1956         10.6668       -0.0265678         141.885
0.629                   -4.00777         153.426         -47.0963         8.62582         -47.0964         8.62629       -0.0268643         141.801
0.63                    -4.16527         152.427         -46.9983         6.57205         -46.9984         6.57253       -0.0271647         141.717
0.631                   -4.32945         151.447         -46.9017         4.50538         -46.9018         4.50586       -0.0274693         141.633
0.632                   -4.50043         150.488         -46.8067         2.42621         -46.8067          2.4267        -0.027778         141.548
0.633                   -4.67831         149.555         -46.7133        0.335035         -46.7134        0.335521        -0.028091         141.463
0.634                   -4.86314         148.651         -46.6219         -1.7676         -46.6219        -1.76711       -0.0284083         141.378
0.635                   -5.05493          147.78         -46.5324        -3.88104         -46.5324        -3.88056       -0.0287301         141.293
0.636                   -5.25366         146.947         -46.4451        -6.00456          -46.445         -6.0041       -0.0290564         141.207
0.637                   -5.45924         146.156           -46.36        -8.13737           -46.36        -8.13692       -0.0293874         141.121
0.638                   -5.67153         145.412         -46.2774        -10.2786         -46.2774        -10.2782       -0.0297232         141.035
0.639                   -5.89031          144.72         -46.1973        -12.4273         -46.1973        -12.4269       -0.0300638         140.948
0.64                    -6.11528         144.086         -46.1199        -14.5824         -46.1198         -14.582       -0.0304094         140.861
0.641                   -6.34603         143.514         -46.0452        -16.7429         -46.0451        -16.7426       -0.0307601         140.774
0.642                   -6.58208         143.011         -45.9733        -18.9077         -45.9732        -18.9074       -0.0311159         140.687
0.643                    -6.8228         142.583         -45.9043        -21.0756         -45.9042        -21.0753       -0.0314771         140.599
0.644                   -7.06744         142.235         -45.8382        -23.2453         -45.8382         -23.245       -0.0318438          140.51
0.645                   -7.31511         141.972         -45.7752        -25.4157         -45.7751        -25.4154        -0.032216         140.422
0.646                   -7.56476           141.8         -45.7151        -27.5853         -45.7151        -27.5851       -0.0325938         140.333
0.647                    -7.8152         141.724         -45.6581        -29.7531          -45.658        -29.7529       -0.0329775         140.244
0.648                   -8.06507         141.747         -45.6041        -31.9176          -45.604        -31.9175       -0.0333671         140.154
0.649                   -8.31282         141.874         -45.5531        -34.0777          -45.553        -34.0775       -0.0337628         140.064
0.65                    -8.55678         142.106         -45.5051        -36.2319          -45.505        -36.2318       -0.0341647         139.974
0.651                   -8.79513         142.444           -45.46        -38.3791         -45.4599        -38.3791        -0.034573         139.883
0.652                   -9.02594         142.887         -45.4178        -40.5181         -45.4177         -40.518       -0.0349878         139.792
0.653                   -9.24721         143.432         -45.3783        -42.6476         -45.3782        -42.6476       -0.0354092         139.701
0.654                    -9.4569         144.076         -45.3416        -44.7665         -45.3415        -44.7665       -0.0358374         139.609
0.655                   -9.65303          144.81         -45.3074        -46.8737         -45.3073        -46.8738       -0.0362726         139.517
0.656                   -9.83371         145.625         -45.2757        -48.9683         -45.2756        -48.9683       -0.0367149         139.424
0.657                   -9.99726          146.51         -45.2464        -51.0491         -45.2463        -51.0492       -0.0371645         139.331
0.658                   -10.1422         147.452         -45.2193        -53.1154         -45.2193        -53.1156       -0.0376216         139.238
0.659                   -10.2675         148.435         -45.1944        -55.1663         -45.1943        -55.1665       -0.0380863         139.144
0.66                    -10.3723         149.443         -45.1713         -57.201         -45.1712        -57.2012       -0.0385588          139.05
0.661                   -10.4564         150.459         -45.1501        -59.2189           -45.15        -59.2191       -0.0390393         138.955
0.662                   -10.5198         151.466         -45.1305        -61.2193         -45.1304        -61.2195        -0.039528          138.86
0.663                    -10.563         152.447         -45.1124        -63.2018         -45.1123         -63.202       -0.0400251         138.765
0.664                   -10.5869         153.387         -45.0955        -65.1657         -45.0955         -65.166       -0.0405308         138.669
0.665                   -10.5928         154.273         -45.0799        -67.1109         -45.0798        -67.1111       -0.0410453         138.572
0.666                   -10.5822         155.091         -45.0652        -69.0369         -45.0651        -69.0371       -0.0415688         138.475
0.667                   -10.5566         155.832         -45.0514        -70.9436         -45.0513        -70.9438       -0.0421016         138.378
0.668                   -10.5178         156.489         -45.0382        -72.8306         -45.0381        -72.8308       -0.0426438          138.28
0.669                   -10.4678         157.055         -45.0255        -74.6981         -45.0254        -74.6983       -0.0431957         138.182
0.67                    -10.4082         157.526         -45.0131        -76.5458          -45.013         -76.546       -0.0437575         138.083
0.671                   -10.3409         157.901         -45.0009        -78.3738         -45.0008         -78.374       -0.0443295         137.984
0.672                   -10.2675         158.179         -44.9887        -80.1822         -44.9886        -80.1824        -0.044912         137.884
0.673                   -10.1895          158.36         -44.9764        -81.9712         -44.9763        -81.9713       -0.0455051         137.784
0.674                   -10.1084         158.446         -44.9637        -83.7408         -44.9637        -83.7408       -0.0461092         137.683
0.675                   -10.0255          158.44         -44.9507        -85.4912         -44.9507        -85.4913       -0.0467246         137.582
0.676                   -9.94175         158.344         -44.9371        -87.2229         -44.9371        -87.2229       -0.0473515          137.48
0.677                   -9.85829         158.162         -44.9228        -88.9359         -44.9228         -88.936       -0.0479902         137.378
0.678                   -9.77595         157.897         -44.9076        -90.6308         -44.9076        -90.6308       -0.0486411         137.275
0.679                   -9.69546         157.554         -44.8915        -92.3078         -44.8915        -92.3078       -0.0493044         137.171
0.68                    -9.61749         157.137         -44.8744        -93.9673         -44.8743        -93.9673       -0.0499805         137.067
0.681                   -9.54257         156.648          -44.856        -95.6099         -44.8559        -95.6098       -0.0506698         136.962
0.682                   -9.47117         156.092         -44.8363        -97.2358         -44.8362        -97.2357       -0.0513725         136.857
0.683                   -9.40367         155.472         -44.8151        -98.8456         -44.8151        -98.8455        -0.052089         136.751
0.684                   -9.34042         154.791         -44.7925         -100.44         -44.7924         -100.44       -0.0528197         136.645
0.685                   -9.28168         154.053         -44.7682        -102.019         -44.7682        -102.019        -0.053565         136.538
0.686                    -9.2277          153.26         -44.7422        -103.583         -44.7422        -103.583       -0.0543252          136.43
0.687                   -9.17865         152.415         -44.7145        -105.134         -44.7144        -105.134       -0.0551009         136.322
0.688                   -9.13472         151.521         -44.6848        -106.671         -44.6847        -106.671       -0.0558923         136.213
0.689                   -9.09604          150.58         -44.6531        -108.195         -44.6531        -108.195       -0.0566999         136.103
0.69                    -9.06273         149.593         -44.6194        -109.707         -44.6194        -109.707       -0.0575242         135.993
0.691                   -9.03491         148.564         -44.5836        -111.207         -44.5835        -111.207       -0.0583657         135.882
0.692                   -9.01266         147.492         -44.5456        -112.697         -44.5455        -112.696       -0.0592247          135.77
0.693                   -8.99608         146.381         -44.5053        -114.175         -44.5053        -114.175       -0.0601019         135.657
0.694                   -8.98526         145.231         -44.4628        -115.644         -44.4627        -115.644       -0.0609977         135.544
0.695                   -8.98027         144.043         -44.4178        -117.104         -44.4177        -117.104       -0.0619127          135.43
0.696                   -8.98121         142.819         -44.3704        -118.556         -44.3703        -118.555       -0.0628473         135.316