! TOUCHSTONE file generated by CST MICROWAVE STUDIO
! Date and time: Mon Nov 30 08:42:09 2020
! Project name: Scenario_1_Planar_Body_Tissue_Out_of_Line.cst
! Parameters = {dy1=-328.7; L_HA=400; Ltissue=700; MT=2.54; Rad_Dielectric=30; Rad_Lower=7.3; Rad_Upper=30; Wtissue=700; a_HA=580; a_WG=246; b_HA=500; b_WG=121; c_HA=0; c_WG=187; d_feed=85; dx1=866; h_feed=15; h_lower=18; h_upper=40; hfat=3; hgap=25; hmuscle=50; hskin=1.5}
! Header version: 2018
! Port assignment regex: !\s*Touchstone port\s*([0-9]+)\s*=\s*(CST MWS port|CST DS port)\s*([0-9]+|Zmin|Zmax)\s*\(\"(.*)\"\)(\s*mode\s*([0-9]+))?.*
! Touchstone port assignment:
! Touchstone port 1 = CST MWS port 1 ("")
! Touchstone port 2 = CST MWS port 2 ("")
# GHz S DB R 50
0.5                     -0.12823        -122.066         -65.3588          80.629         -65.3586         80.6348      -0.00752334         151.153
0.501                   -0.13387        -122.548         -65.1003         78.6872         -65.1002         78.6916      -0.00760101         151.088
0.502                  -0.140375        -123.033         -64.8413         76.7043         -64.8413         76.7074       -0.0076803         151.022
0.503                  -0.147762        -123.518         -64.5819         74.6793          -64.582         74.6811      -0.00776106         150.957
0.504                   -0.15604        -124.004         -64.3224         72.6114         -64.3226          72.612      -0.00784313         150.891
0.505                  -0.165211        -124.491         -64.0631         70.4997         -64.0634         70.4991      -0.00792636         150.826
0.506                   -0.17527        -124.977         -63.8043         68.3433         -63.8046         68.3417      -0.00801061          150.76
0.507                  -0.186203        -125.462         -63.5462         66.1417         -63.5466         66.1391      -0.00809576         150.695
0.508                  -0.197985        -125.947         -63.2893         63.8942         -63.2898         63.8907      -0.00818166         150.629
0.509                  -0.210585        -126.429         -63.0338         61.6005         -63.0344         61.5962       -0.0082682         150.563
0.51                   -0.223959         -126.91         -62.7801         59.2602         -62.7808         59.2552      -0.00835529         150.497
0.511                  -0.238054        -127.388         -62.5287         56.8734         -62.5295         56.8676      -0.00844282         150.431
0.512                  -0.252806        -127.863           -62.28         54.4401         -62.2808         54.4337      -0.00853071         150.365
0.513                  -0.268144        -128.334         -62.0343         51.9607         -62.0352         51.9538      -0.00861889         150.299
0.514                  -0.283988        -128.802         -61.7922         49.4358         -61.7931         49.4285      -0.00870731         150.233
0.515                  -0.300248        -129.266          -61.554         46.8663          -61.555         46.8587      -0.00879589         150.167
0.516                  -0.316832        -129.727         -61.3202         44.2535         -61.3213         44.2455      -0.00888462           150.1
0.517                  -0.333643        -130.183         -61.0913         41.5987         -61.0925         41.5906      -0.00897345         150.034
0.518                  -0.350581        -130.634         -60.8678         38.9039          -60.869         38.8956      -0.00906236         149.967
0.519                  -0.367545        -131.082           -60.65         36.1711         -60.6513         36.1628      -0.00915133         149.901
0.52                   -0.384438        -131.526         -60.4383         33.4029         -60.4397         33.3946      -0.00924036         149.834
0.521                  -0.401165        -131.967         -60.2332         30.6019         -60.2346         30.5937      -0.00932946         149.768
0.522                  -0.417637        -132.404          -60.035         27.7713         -60.0364         27.7633      -0.00941861         149.701
0.523                  -0.433772        -132.838          -59.844         24.9145         -59.8455         24.9067      -0.00950784         149.634
0.524                  -0.449497        -133.269         -59.6605          22.035          -59.662         22.0275      -0.00959717         149.567
0.525                  -0.464749        -133.699         -59.4846         19.1367         -59.4861         19.1294       -0.0096866           149.5
0.526                  -0.479473        -134.128         -59.3166         16.2235         -59.3181         16.2166      -0.00977618         149.433
0.527                  -0.493628        -134.555         -59.1565         13.2995          -59.158          13.293      -0.00986592         149.365
0.528                  -0.507182        -134.983         -59.0043         10.3689         -59.0058         10.3628      -0.00995585         149.298
0.529                  -0.520115        -135.411         -58.8601         7.43588         -58.8616         7.43011        -0.010046         149.231
0.53                   -0.532417         -135.84         -58.7237         4.50447         -58.7252         4.49911       -0.0101365         149.163
0.531                  -0.544088         -136.27          -58.595          1.5787         -58.5964         1.57375       -0.0102272         149.095
0.532                  -0.555136        -136.703         -58.4737        -1.33758         -58.4751        -1.34211       -0.0103183         149.028
0.533                   -0.56558        -137.139         -58.3596        -4.24073         -58.3609        -4.24486       -0.0104098          148.96
0.534                  -0.575444        -137.578         -58.2524        -7.12735         -58.2537        -7.13109       -0.0105016         148.892
0.535                  -0.584759        -138.021         -58.1517        -9.99433         -58.1529        -9.99769        -0.010594         148.824
0.536                  -0.593562        -138.468         -58.0571        -12.8388         -58.0582        -12.8418       -0.0106869         148.756
0.537                  -0.601894        -138.919         -57.9681        -15.6584         -57.9692        -15.6611       -0.0107803         148.688
0.538                  -0.609799        -139.376         -57.8844        -18.4508         -57.8854        -18.4532       -0.0108743         148.619
0.539                  -0.617324        -139.838         -57.8054        -21.2143         -57.8063        -21.2164        -0.010969         148.551
0.54                    -0.62452        -140.306         -57.7308        -23.9473         -57.7316        -23.9491       -0.0110643         148.482
0.541                  -0.631437         -140.78         -57.6599        -26.6487         -57.6607        -26.6503       -0.0111604         148.414
0.542                  -0.638126         -141.26         -57.5924        -29.3176         -57.5931         -29.319       -0.0112572         148.345
0.543                  -0.644639        -141.746         -57.5278        -31.9535         -57.5284        -31.9547       -0.0113548         148.276
0.544                  -0.651029        -142.239         -57.4655         -34.556         -57.4661        -34.5571       -0.0114533         148.207
0.545                  -0.657348         -142.74         -57.4053        -37.1251         -57.4057        -37.1261       -0.0115527         148.138
0.546                  -0.663647        -143.247         -57.3466         -39.661          -57.347        -39.6618        -0.011653         148.069
0.547                  -0.669976        -143.761          -57.289        -42.1641         -57.2893        -42.1648       -0.0117543         147.999
0.548                  -0.676386        -144.282         -57.2322        -44.6348         -57.2324        -44.6355       -0.0118566          147.93
0.549                  -0.682926        -144.811         -57.1757        -47.0741         -57.1759        -47.0747       -0.0119599          147.86
0.55                   -0.689645        -145.347         -57.1194        -49.4826         -57.1195        -49.4832       -0.0120644         147.791
0.551                   -0.69659        -145.891         -57.0627        -51.8615         -57.0628         -51.862         -0.01217         147.721
0.552                   -0.70381        -146.442         -57.0055        -54.2117         -57.0055        -54.2123       -0.0122767         147.651
0.553                  -0.711351            -147         -56.9475        -56.5345         -56.9475         -56.535       -0.0123847         147.581
0.554                   -0.71926        -147.567         -56.8883        -58.8311         -56.8883        -58.8316        -0.012494         147.511
0.555                  -0.727583        -148.141         -56.8279        -61.1027         -56.8278        -61.1032       -0.0126045         147.441
0.556                  -0.736366        -148.723         -56.7659        -63.3507         -56.7658        -63.3512       -0.0127163          147.37
0.557                  -0.745655        -149.312         -56.7023        -65.5765         -56.7021         -65.577       -0.0128296           147.3
0.558                  -0.755498         -149.91         -56.6367        -67.7814         -56.6365        -67.7819       -0.0129442         147.229
0.559                  -0.765942        -150.515         -56.5691        -69.9669         -56.5689        -69.9674       -0.0130603         147.159
0.56                   -0.777033        -151.128         -56.4994        -72.1343         -56.4991        -72.1348       -0.0131778         147.088
0.561                  -0.788821        -151.749         -56.4273        -74.2851         -56.4271        -74.2856       -0.0132969         147.017
0.562                  -0.801356        -152.377         -56.3529        -76.4207         -56.3526        -76.4212       -0.0134175         146.946
0.563                  -0.814687        -153.014         -56.2759        -78.5424         -56.2756         -78.543       -0.0135397         146.874
0.564                  -0.828867        -153.658         -56.1964        -80.6518         -56.1961        -80.6523       -0.0136635         146.803
0.565                   -0.84395         -154.31         -56.1143        -82.7502          -56.114        -82.7507       -0.0137889         146.732
0.566                  -0.859992         -154.97         -56.0295         -84.839         -56.0292        -84.8395       -0.0139161          146.66
0.567                  -0.877049        -155.638         -55.9419        -86.9195         -55.9416          -86.92        -0.014045         146.588
0.568                  -0.895182        -156.314         -55.8516        -88.9931         -55.8513        -88.9936       -0.0141756         146.516
0.569                  -0.914452        -156.997         -55.7586        -91.0612         -55.7583        -91.0617       -0.0143081         146.444
0.57                   -0.934924        -157.688         -55.6627        -93.1252         -55.6624        -93.1256       -0.0144423         146.372
0.571                  -0.956666        -158.387         -55.5641        -95.1862         -55.5638        -95.1866       -0.0145785           146.3
0.572                  -0.979746        -159.093         -55.4627        -97.2457         -55.4623         -97.246       -0.0147165         146.227
0.573                   -1.00424        -159.806         -55.3585        -99.3049         -55.3582        -99.3052       -0.0148564         146.155
0.574                   -1.03022        -160.527         -55.2516        -101.365         -55.2513        -101.365       -0.0149983         146.082
0.575                   -1.05776        -161.255          -55.142        -103.427         -55.1417        -103.428       -0.0151422         146.009
0.576                   -1.08696         -161.99         -55.0298        -105.493         -55.0295        -105.494       -0.0152882         145.936
0.577                   -1.11789        -162.731          -54.915        -107.564         -54.9147        -107.564       -0.0154361         145.863
0.578                   -1.15064        -163.478         -54.7976         -109.64         -54.7974        -109.641       -0.0155862         145.789
0.579                    -1.1853        -164.232         -54.6779        -111.724         -54.6776        -111.724       -0.0157384         145.716
0.58                    -1.22197        -164.992         -54.5557        -113.816         -54.5555        -113.816       -0.0158927         145.642
0.581                   -1.26074        -165.756         -54.4313        -115.917         -54.4311        -115.917       -0.0160492         145.568
0.582                   -1.30172        -166.526         -54.3048        -118.029         -54.3046        -118.028       -0.0162078         145.494
0.583                     -1.345        -167.299         -54.1762        -120.152          -54.176        -120.152       -0.0163688          145.42
0.584                   -1.39068        -168.077         -54.0457        -122.287         -54.0455        -122.287       -0.0165319         145.346
0.585                   -1.43887        -168.857         -53.9134        -124.437         -53.9133        -124.437       -0.0166974         145.271
0.586                   -1.48966        -169.639         -53.7795        -126.601         -53.7794          -126.6       -0.0168651         145.197
0.587                   -1.54316        -170.423         -53.6441         -128.78          -53.644         -128.78       -0.0170352         145.122
0.588                   -1.59945        -171.206         -53.5074        -130.976         -53.5073        -130.975       -0.0172077         145.047
0.589                   -1.65863        -171.989         -53.3696        -133.188         -53.3695        -133.188       -0.0173825         144.972
0.59                    -1.72079         -172.77         -53.2308        -135.419         -53.2307        -135.418       -0.0175598         144.897
0.591                   -1.78599        -173.548         -53.0913        -137.668         -53.0912        -137.667       -0.0177394         144.821
0.592                    -1.8543         -174.32         -52.9513        -139.936         -52.9512        -139.935       -0.0179215         144.746
0.593                   -1.92576        -175.086         -52.8109        -142.223         -52.8108        -142.223       -0.0181061          144.67
0.594                    -2.0004        -175.844         -52.6705        -144.531         -52.6704         -144.53       -0.0182931         144.594
0.595                   -2.07822        -176.591         -52.5302        -146.858         -52.5301        -146.858       -0.0184827         144.518
0.596                    -2.1592        -177.327         -52.3903        -149.206         -52.3902        -149.206       -0.0186748         144.442
0.597                   -2.24329        -178.048          -52.251        -151.574          -52.251        -151.574       -0.0188694         144.365
0.598                    -2.3304        -178.753         -52.1126        -153.963         -52.1126        -153.962       -0.0190665         144.288
0.599                    -2.4204        -179.439         -51.9754        -156.371         -51.9754        -156.371       -0.0192662         144.211
0.6                     -2.51312         179.896         -51.8396        -158.799         -51.8396        -158.799       -0.0194685         144.134
0.601                   -2.60832         179.254         -51.7054        -161.246         -51.7054        -161.246       -0.0196734         144.057
0.602                   -2.70574         178.638         -51.5731        -163.712         -51.5731        -163.712       -0.0198809          143.98
0.603                   -2.80503          178.05          -51.443        -166.195          -51.443        -166.195        -0.020091         143.902
0.604                    -2.9058         177.492         -51.3152        -168.695         -51.3153        -168.694       -0.0203037         143.824
0.605                   -3.00759         176.965           -51.19         -171.21         -51.1901        -171.209       -0.0205191         143.746
0.606                   -3.10989         176.472         -51.0676        -173.739         -51.0677        -173.738       -0.0207372         143.668
0.607                   -3.21212         176.014         -50.9482         -176.28         -50.9484         -176.28        -0.020958          143.59
0.608                   -3.31366         175.591          -50.832        -178.833         -50.8322        -178.833       -0.0211814         143.511
0.609                   -3.41384         175.203         -50.7191         178.605         -50.7193         178.605       -0.0214076         143.432
0.61                    -3.51195         174.851         -50.6096         176.035         -50.6098         176.036       -0.0216365         143.353
0.611                   -3.60728         174.534         -50.5037          173.46         -50.5038          173.46       -0.0218682         143.274
0.612                   -3.69911         174.249         -50.4013         170.881         -50.4015         170.881       -0.0221027         143.194
0.613                   -3.78674         173.994         -50.3026           168.3         -50.3028         168.301       -0.0223401         143.115
0.614                    -3.8695         173.766         -50.2075          165.72         -50.2077          165.72       -0.0225803         143.035
0.615                   -3.94678         173.562          -50.116         163.141         -50.1163         163.142       -0.0228234         142.955
0.616                   -4.01805         173.376         -50.0281         160.568         -50.0284         160.568       -0.0230695         142.874
0.617                   -4.08288         173.203         -49.9437             158          -49.944             158       -0.0233186         142.794
0.618                   -4.14093         173.039         -49.8627          155.44         -49.8629         155.441       -0.0235707         142.713
0.619                   -4.19201         172.877         -49.7848         152.891         -49.7851         152.891        -0.023826         142.632
0.62                    -4.23603         172.711         -49.7101         150.352         -49.7103         150.353       -0.0240844          142.55
0.621                   -4.27305         172.536         -49.6382         147.827         -49.6384         147.828       -0.0243461         142.469
0.622                   -4.30324         172.345         -49.5689         145.317         -49.5691         145.318       -0.0246111         142.387
0.623                   -4.32689         172.133         -49.5021         142.823         -49.5023         142.823       -0.0248796         142.305
0.624                    -4.3444         171.895         -49.4374         140.345         -49.4376         140.346       -0.0251515         142.222
0.625                   -4.35625         171.626         -49.3747         137.885         -49.3748         137.886       -0.0254271          142.14
0.626                     -4.363         171.322         -49.3135         135.444         -49.3137         135.444       -0.0257063         142.057
0.627                   -4.36526          170.98         -49.2538         133.021         -49.2539         133.022       -0.0259894         141.974
0.628                   -4.36369         170.596         -49.1951         130.619         -49.1952         130.619       -0.0262764         141.891
0.629                   -4.35894         170.169         -49.1372         128.236         -49.1373         128.236       -0.0265674         141.807
0.63                    -4.35171         169.696         -49.0799         125.872         -49.0799         125.873       -0.0268625         141.723
0.631                   -4.34264         169.176         -49.0227         123.528         -49.0227         123.529       -0.0271619         141.639
0.632                   -4.33241          168.61         -48.9656         121.204         -48.9655         121.204       -0.0274658         141.554
0.633                   -4.32162         167.996         -48.9081         118.898          -48.908         118.898       -0.0277741          141.47
0.634                   -4.31089         167.334           -48.85          116.61         -48.8499         116.609       -0.0280871         141.384
0.635                   -4.30078         166.626         -48.7912         114.339         -48.7911         114.338        -0.028405         141.299
0.636                    -4.2918          165.87         -48.7314         112.085         -48.7312         112.084       -0.0287277         141.213
0.637                   -4.28445          165.07         -48.6703         109.845         -48.6701         109.844       -0.0290556         141.128
0.638                   -4.27919         164.224         -48.6077          107.62         -48.6075         107.619       -0.0293886         141.041
0.639                   -4.27644         163.336         -48.5436         105.408         -48.5433         105.406       -0.0297271         140.955
0.64                    -4.27659         162.404         -48.4777         103.207         -48.4774         103.205        -0.030071         140.868
0.641                   -4.28001         161.432         -48.4099         101.016         -48.4096         101.013       -0.0304206         140.781
0.642                   -4.28702         160.419           -48.34         98.8341         -48.3398         98.8305        -0.030776         140.693
0.643                   -4.29796         159.368          -48.268         96.6586         -48.2678         96.6546       -0.0311373         140.605
0.644                   -4.31312         158.279         -48.1939         94.4883         -48.1937         94.4838       -0.0315047         140.517
0.645                   -4.33279         157.153         -48.1175         92.3216         -48.1173         92.3166       -0.0318784         140.429
0.646                   -4.35725         155.992         -48.0388         90.1567         -48.0387         90.1512       -0.0322584          140.34
0.647                   -4.38677         154.796         -47.9579         87.9919         -47.9578         87.9859       -0.0326449          140.25
0.648                   -4.42161         153.567         -47.8747         85.8254         -47.8747         85.8191       -0.0330381         140.161
0.649                   -4.46204         152.305         -47.7894         83.6557         -47.7894          83.649       -0.0334382         140.071
0.65                    -4.50834         151.012         -47.7019         81.4809          -47.702         81.4739       -0.0338451         139.981
0.651                   -4.56076         149.689         -47.6124         79.2994         -47.6127         79.2923       -0.0342592          139.89
0.652                    -4.6196         148.336         -47.5211         77.1098         -47.5214         77.1026       -0.0346805         139.799
0.653                   -4.68515         146.954         -47.4281         74.9105         -47.4285         74.9034       -0.0351093         139.708
0.654                   -4.75769         145.544         -47.3335         72.7003          -47.334         72.6932       -0.0355455         139.616
0.655                   -4.83756         144.107         -47.2376         70.4778         -47.2382          70.471       -0.0359895         139.524
0.656                   -4.92508         142.644         -47.1407          68.242         -47.1413         68.2356       -0.0364413         139.431
0.657                    -5.0206         141.157         -47.0428         65.9922         -47.0436         65.9863       -0.0369011         139.339
0.658                   -5.12449         139.645         -46.9444         63.7275         -46.9453         63.7222       -0.0373691         139.245
0.659                   -5.23714          138.11         -46.8457         61.4476         -46.8466          61.443       -0.0378454         139.152
0.66                    -5.35897         136.554          -46.747         59.1523         -46.7479         59.1483       -0.0383301         139.057
0.661                   -5.49041         134.977         -46.6485         56.8415         -46.6494         56.8383       -0.0388235         138.963
0.662                   -5.63194         133.381         -46.5505         54.5156         -46.5514         54.5132       -0.0393257         138.868
0.663                   -5.78405         131.767         -46.4534          52.175         -46.4542         52.1734       -0.0398368         138.773
0.664                   -5.94727         130.138         -46.3572         49.8206          -46.358         49.8197       -0.0403571         138.677
0.665                   -6.12217         128.495         -46.2623         47.4533          -46.263         47.4529       -0.0408867         138.581
0.666                   -6.30934          126.84         -46.1689         45.0742         -46.1694         45.0741       -0.0414258         138.484
0.667                   -6.50942         125.176         -46.0771         42.6844         -46.0774         42.6846       -0.0419746         138.387
0.668                   -6.72309         123.505         -45.9869         40.2854         -45.9872         40.2856       -0.0425332         138.289
0.669                   -6.95108         121.831         -45.8986         37.8784         -45.8987         37.8783       -0.0431019         138.191
0.67                    -7.19416         120.157         -45.8121         35.4646         -45.8121         35.4641       -0.0436808         138.092
0.671                   -7.45317         118.487         -45.7275         33.0452         -45.7274         33.0441       -0.0442702         137.993
0.672                   -7.72899         116.825         -45.6448         30.6212         -45.6446         30.6194       -0.0448703         137.894
0.673                   -8.02257         115.177         -45.5639         28.1934         -45.5637         28.1908       -0.0454812         137.794
0.674                   -8.33495         113.547         -45.4848         25.7625         -45.4846          25.759       -0.0461033         137.693
0.675                   -8.66722         111.944         -45.4075          23.329         -45.4073         23.3246       -0.0467366         137.592
0.676                   -9.02058         110.374          -45.332         20.8932         -45.3319         20.8881       -0.0473816         137.491
0.677                   -9.39632         108.845         -45.2583         18.4553         -45.2583         18.4496       -0.0480384         137.388
0.678                   -9.79584         107.369         -45.1864         16.0156         -45.1865         16.0094       -0.0487072         137.286
0.679                   -10.2207         105.957         -45.1163         13.5741         -45.1166         13.5677       -0.0493883         137.183
0.68                    -10.6724         104.624         -45.0483         11.1312         -45.0486         11.1248       -0.0500821         137.079
0.681                   -11.1528         103.385         -44.9822          8.6872         -44.9827         8.68097       -0.0507887         136.974
0.682                   -11.6639          102.26         -44.9183         6.24265         -44.9189         6.23681       -0.0515084          136.87
0.683                   -12.2077         101.275         -44.8567         3.79828         -44.8574           3.793       -0.0522416         136.764
0.684                   -12.7862         100.459         -44.7975         1.35502         -44.7982         1.35042       -0.0529886         136.658
0.685                   -13.4016         99.8468         -44.7407        -1.08597         -44.7415        -1.08982       -0.0537497         136.551
0.686                   -14.0561         99.4848         -44.6866        -3.52337         -44.6874        -3.52643       -0.0545252         136.444
0.687                   -14.7513          99.429          -44.635        -5.95567         -44.6359        -5.95794       -0.0553155         136.336
0.688                   -15.4882         99.7505         -44.5862        -8.38123          -44.587        -8.38275       -0.0561209         136.227
0.689                   -16.2662         100.538           -44.54        -10.7983         -44.5408        -10.7992       -0.0569418         136.118
0.69                    -17.0821         101.903         -44.4965        -13.2052         -44.4972        -13.2055       -0.0577786         136.008
0.691                    -17.928         103.981         -44.4556        -15.6002         -44.4562        -15.5999       -0.0586318         135.898
0.692                   -18.7882         106.928          -44.417        -17.9814         -44.4176        -17.9807       -0.0595016         135.786
0.693                   -19.6352         110.908         -44.3809        -20.3474         -44.3814        -20.3464       -0.0603887         135.674
0.694                   -20.4254         116.053         -44.3468        -22.6965         -44.3472        -22.6953       -0.0612935         135.562
0.695                   -21.0975          122.39         -44.3147        -25.0275         -44.3151        -25.0261       -0.0622164         135.448
0.696                   -21.5807         129.748         -44.2844         -27.339         -44.2846        -27.3377        -0.063158         135.334