! TOUCHSTONE file generated by CST MICROWAVE STUDIO
! Date and time: Fri Dec 11 14:15:59 2020
! Project name: Scenario_1_Planar_Body_Tissue_Out_of_Line_v2.cst
! Parameters = {dy1=155.7; L_HA=400; Ltissue=700; MT=2.54; Rad_Dielectric=30; Rad_Lower=7.3; Rad_Upper=30; Wtissue=700; a_HA=580; a_WG=246; b_HA=500; b_WG=121; c_HA=0; c_WG=187; d_feed=85; dx1=520; h_feed=15; h_lower=18; h_upper=40; hfat=3; hgap=25; hmuscle=50; hskin=1.5}
! Header version: 2018
! Port assignment regex: !\s*Touchstone port\s*([0-9]+)\s*=\s*(CST MWS port|CST DS port)\s*([0-9]+|Zmin|Zmax)\s*\(\"(.*)\"\)(\s*mode\s*([0-9]+))?.*
! Touchstone port assignment:
! Touchstone port 1 = CST MWS port 1 ("")
! Touchstone port 2 = CST MWS port 2 ("")
# GHz S DB R 50
0.5                   -0.0825596        -121.952         -62.3862        -57.6744         -62.3867        -57.6719      -0.00738012         151.159
0.501                 -0.0894315        -122.313         -62.3133        -46.6417         -62.4804        -46.5804      -0.00745886         151.093
0.502                 -0.0963109        -122.677         -62.0501        -34.8178         -62.3981        -34.4607      -0.00753806         151.028
0.503                  -0.103199        -123.043         -61.5811        -22.6087         -62.1051        -21.7158      -0.00761774         150.963
0.504                  -0.110095        -123.412         -60.9235         -10.451         -61.6003        -8.86216       -0.0076979         150.897
0.505                  -0.117001        -123.782         -60.1228         1.30568         -60.9202         3.61986      -0.00777854         150.832
0.506                  -0.123918        -124.155         -59.2382         12.4589         -60.1252          15.405      -0.00785968         150.766
0.507                  -0.130845         -124.53         -58.3276          22.939         -59.2796         26.3464      -0.00794133         150.701
0.508                  -0.137785        -124.907         -57.4387         32.7561         -58.4379         36.4261      -0.00802348         150.635
0.509                  -0.144737        -125.287         -56.6067         41.9493         -57.6392           45.69      -0.00810615         150.569
0.51                   -0.151703        -125.669         -55.8544          50.555          -56.908         54.2012      -0.00818934         150.503
0.511                  -0.158684        -126.053          -55.194         58.5948          -56.257         62.0178      -0.00827306         150.437
0.512                   -0.16568         -126.44         -54.6293         66.0765         -55.6901         69.1872      -0.00835732         150.371
0.513                  -0.172692         -126.83         -54.1578         73.0007         -55.2051         75.7475      -0.00844213         150.305
0.514                  -0.179722        -127.222         -53.7723         79.3691         -54.7961         81.7324      -0.00852749         150.239
0.515                  -0.186771        -127.616          -53.463         85.1893         -54.4549         87.1741       -0.0086134         150.173
0.516                   -0.19384        -128.013         -53.2192         90.4774         -54.1728          92.106      -0.00869989         150.106
0.517                  -0.200929        -128.413         -53.0298         95.2578          -53.941         96.5628      -0.00878696          150.04
0.518                   -0.20804        -128.815          -52.885         99.5616         -53.7511          100.58      -0.00887462         149.973
0.519                  -0.215175         -129.22         -52.7759         103.424         -53.5958         104.194      -0.00896287         149.907
0.52                   -0.222335        -129.627         -52.6948         106.881         -53.4689          107.44      -0.00905173          149.84
0.521                   -0.22952        -130.038         -52.6355         109.971         -53.3648         110.351      -0.00914121         149.773
0.522                  -0.236733        -130.451          -52.593         112.728         -53.2791          112.96      -0.00923132         149.707
0.523                  -0.243975        -130.867         -52.5632         115.187         -53.2081         115.296      -0.00932207          149.64
0.524                  -0.251247        -131.285         -52.5427         117.376         -53.1488         117.385      -0.00941347         149.573
0.525                  -0.258551        -131.707         -52.5292         119.324         -53.0986         119.251      -0.00950553         149.505
0.526                  -0.265889        -132.132         -52.5206         121.056         -53.0556         120.917      -0.00959826         149.438
0.527                  -0.273262        -132.559         -52.5153         122.594         -53.0182         122.402      -0.00969168         149.371
0.528                  -0.280672         -132.99         -52.5121         123.957         -52.9851         123.723      -0.00978578         149.304
0.529                  -0.288122        -133.424         -52.5101         125.163         -52.9552         124.896      -0.00988059         149.236
0.53                   -0.295612        -133.861         -52.5086         126.227         -52.9276         125.935      -0.00997612         149.168
0.531                  -0.303146        -134.301          -52.507         127.162         -52.9018         126.851       -0.0100724         149.101
0.532                  -0.310724        -134.744         -52.5048          127.98          -52.877         127.655       -0.0101694         149.033
0.533                  -0.318351         -135.19         -52.5018         128.692          -52.853         128.358       -0.0102671         148.965
0.534                  -0.326026         -135.64         -52.4978         129.308         -52.8292         128.968       -0.0103657         148.897
0.535                  -0.333754        -136.093         -52.4924         129.835         -52.8055         129.492        -0.010465         148.829
0.536                  -0.341537         -136.55         -52.4857          130.28         -52.7815         129.937       -0.0105651         148.761
0.537                  -0.349377         -137.01         -52.4774         130.651         -52.7571          130.31        -0.010666         148.693
0.538                  -0.357278        -137.473         -52.4675         130.953         -52.7322         130.615       -0.0107677         148.624
0.539                  -0.365241        -137.941          -52.456         131.192         -52.7065         130.857       -0.0108703         148.556
0.54                    -0.37327        -138.411         -52.4428         131.371           -52.68         131.042       -0.0109737         148.487
0.541                  -0.381368        -138.886         -52.4279         131.495         -52.6527         131.173        -0.011078         148.419
0.542                  -0.389539        -139.364         -52.4113         131.568         -52.6243         131.253       -0.0111832          148.35
0.543                  -0.397786        -139.846          -52.393         131.594         -52.5949         131.285       -0.0112892         148.281
0.544                  -0.406113        -140.332          -52.373         131.574         -52.5645         131.274       -0.0113962         148.212
0.545                  -0.414523        -140.822         -52.3512         131.512         -52.5329          131.22       -0.0115041         148.143
0.546                   -0.42302        -141.316         -52.3278         131.411         -52.5002         131.127        -0.011613         148.074
0.547                  -0.431609        -141.814         -52.3027         131.272         -52.4663         130.996       -0.0117228         148.004
0.548                  -0.440293        -142.316         -52.2759         131.097         -52.4312         130.831       -0.0118337         147.935
0.549                  -0.449078        -142.823         -52.2475         130.889         -52.3949         130.631       -0.0119455         147.865
0.55                   -0.457969        -143.334         -52.2174         130.649         -52.3573           130.4       -0.0120583         147.796
0.551                  -0.466969        -143.849         -52.1857         130.379         -52.3185         130.138       -0.0121722         147.726
0.552                  -0.476085        -144.368         -52.1523         130.079         -52.2784         129.847       -0.0122871         147.656
0.553                  -0.485322        -144.893         -52.1173         129.751          -52.237         129.528       -0.0124031         147.586
0.554                  -0.494686        -145.421         -52.0808         129.397         -52.1944         129.182       -0.0125202         147.516
0.555                  -0.504183        -145.955         -52.0426         129.017         -52.1504          128.81       -0.0126385         147.446
0.556                  -0.513819        -146.493         -52.0028         128.613         -52.1052         128.414       -0.0127578         147.375
0.557                  -0.523601        -147.037         -51.9615         128.184         -52.0586         127.994       -0.0128784         147.305
0.558                  -0.533537        -147.585         -51.9186         127.733         -52.0107          127.55       -0.0130001         147.234
0.559                  -0.543633        -148.138         -51.8741         127.259         -51.9615         127.084        -0.013123         147.164
0.56                   -0.553898        -148.697         -51.8281         126.763         -51.9109         126.596       -0.0132471         147.093
0.561                  -0.564339        -149.261         -51.7805         126.247          -51.859         126.087       -0.0133725         147.022
0.562                  -0.574966         -149.83         -51.7313          125.71         -51.8057         125.557       -0.0134992         146.951
0.563                  -0.585787        -150.405         -51.6806         125.153          -51.751         125.007       -0.0136271         146.879
0.564                  -0.596813        -150.986         -51.6283         124.576          -51.695         124.437       -0.0137564         146.808
0.565                  -0.608053        -151.572         -51.5745         123.981         -51.6376         123.848       -0.0138871         146.737
0.566                  -0.619518        -152.164         -51.5191         123.366         -51.5787          123.24       -0.0140191         146.665
0.567                  -0.631219        -152.762         -51.4621         122.733         -51.5185         122.614       -0.0141525         146.593
0.568                  -0.643169        -153.367         -51.4036         122.083         -51.4569         121.969       -0.0142873         146.521
0.569                  -0.655379        -153.977         -51.3435         121.414         -51.3938         121.306       -0.0144236         146.449
0.57                   -0.667864        -154.594         -51.2819         120.728         -51.3293         120.626       -0.0145614         146.377
0.571                  -0.680637        -155.218         -51.2186         120.024         -51.2633         119.928       -0.0147006         146.305
0.572                  -0.693713        -155.848         -51.1538         119.303         -51.1959         119.212       -0.0148415         146.232
0.573                  -0.707108        -156.485         -51.0875         118.566          -51.127          118.48       -0.0149838          146.16
0.574                  -0.720838        -157.129         -51.0195         117.811         -51.0566         117.731       -0.0151278         146.087
0.575                  -0.734921         -157.78         -50.9499          117.04         -50.9847         116.964       -0.0152734         146.014
0.576                  -0.749376        -158.438         -50.8787         116.253         -50.9114         116.181       -0.0154207         145.941
0.577                  -0.764223        -159.104          -50.806         115.449         -50.8365         115.382       -0.0155697         145.868
0.578                  -0.779481        -159.778         -50.7316         114.628         -50.7601         114.566       -0.0157204         145.795
0.579                  -0.795174        -160.459         -50.6556         113.791         -50.6822         113.733       -0.0158728         145.721
0.58                   -0.811325        -161.149         -50.5779         112.938         -50.6027         112.884       -0.0160271         145.647
0.581                  -0.827959        -161.846         -50.4987         112.069         -50.5217         112.019       -0.0161831         145.574
0.582                  -0.845102        -162.552         -50.4177         111.183         -50.4391         111.137       -0.0163411           145.5
0.583                  -0.862782        -163.267         -50.3352         110.281         -50.3549         110.238       -0.0165009         145.426
0.584                   -0.88103         -163.99          -50.251         109.363         -50.2692         109.324       -0.0166627         145.351
0.585                  -0.899877        -164.723         -50.1651         108.429         -50.1819         108.392       -0.0168264         145.277
0.586                  -0.919357        -165.464         -50.0776         107.478          -50.093         107.445       -0.0169922         145.202
0.587                  -0.939505        -166.216         -49.9884          106.51         -50.0025          106.48         -0.01716         145.128
0.588                  -0.960361        -166.976         -49.8976         105.526         -49.9104         105.499       -0.0173299         145.053
0.589                  -0.981964        -167.747          -49.805         104.526         -49.8166         104.501       -0.0175019         144.978
0.59                    -1.00436        -168.528         -49.7109         103.509         -49.7213         103.487       -0.0176761         144.902
0.591                   -1.02759         -169.32          -49.615         102.475         -49.6243         102.455       -0.0178525         144.827
0.592                   -1.05171        -170.122         -49.5175         101.424         -49.5258         101.406       -0.0180312         144.751
0.593                   -1.07677        -170.935         -49.4183         100.355         -49.4256          100.34       -0.0182121         144.676
0.594                   -1.10282        -171.759         -49.3174         99.2701         -49.3238          99.257       -0.0183954           144.6
0.595                   -1.12993        -172.595         -49.2149         98.1673         -49.2204         98.1561       -0.0185811         144.523
0.596                   -1.15815        -173.443         -49.1107         97.0469         -49.1154         97.0375       -0.0187693         144.447
0.597                   -1.18757        -174.303         -49.0049         95.9087         -49.0088          95.901       -0.0189599         144.371
0.598                   -1.21824        -175.175         -48.8974         94.7526         -48.9006         94.7464        -0.019153         144.294
0.599                   -1.25026         -176.06         -48.7883         93.5783         -48.7908         93.5735       -0.0193487         144.217
0.6                     -1.28369        -176.958         -48.6776         92.3856         -48.6795         92.3821       -0.0195471          144.14
0.601                   -1.31864        -177.869         -48.5654         91.1743         -48.5666         91.1719       -0.0197481         144.063
0.602                   -1.35519        -178.794         -48.4515         89.9441         -48.4522         89.9428       -0.0199518         143.985
0.603                   -1.39345        -179.733         -48.3361         88.6949         -48.3362         88.6946       -0.0201583         143.908
0.604                   -1.43353         179.314         -48.2192         87.4263         -48.2188         87.4268       -0.0203677          143.83
0.605                   -1.47555         178.346         -48.1008         86.1382            -48.1         86.1394       -0.0205799         143.752
0.606                   -1.51963         177.364          -47.981         84.8301         -47.9797          84.832       -0.0207951         143.673
0.607                    -1.5659         176.366         -47.8597          83.502         -47.8581         83.5044       -0.0210133         143.595
0.608                   -1.61452         175.353         -47.7371         82.1535         -47.7351         82.1563       -0.0212345         143.516
0.609                   -1.66563         174.324         -47.6131         80.7842         -47.6108         80.7875       -0.0214588         143.437
0.61                     -1.7194         173.279         -47.4879         79.3941         -47.4853         79.3976       -0.0216863         143.358
0.611                     -1.776         172.218         -47.3614         77.9827         -47.3585         77.9864        -0.021917         143.279
0.612                   -1.83564          171.14         -47.2338         76.5498         -47.2306         76.5536        -0.022151         143.199
0.613                    -1.8985         170.046         -47.1051         75.0951         -47.1017         75.0989       -0.0223884          143.12
0.614                   -1.96482         168.935         -46.9753         73.6183         -46.9718         73.6221       -0.0226291          143.04
0.615                   -2.03482         167.807         -46.8446         72.1192         -46.8409          72.123       -0.0228734         142.959
0.616                   -2.10875         166.662          -46.713         70.5976         -46.7092         70.6012       -0.0231211         142.879
0.617                   -2.18688           165.5         -46.5806         69.0531         -46.5767         69.0566       -0.0233724         142.798
0.618                    -2.2695         164.321         -46.4475         67.4857         -46.4436         67.4889       -0.0236274         142.717
0.619                   -2.35691         163.126         -46.3139         65.8949         -46.3099         65.8979       -0.0238862         142.636
0.62                    -2.44944         161.914         -46.1797         64.2808         -46.1757         64.2834       -0.0241487         142.555
0.621                   -2.54745         160.685         -46.0452         62.6431         -46.0412         62.6453       -0.0244151         142.473
0.622                   -2.65129         159.442         -45.9104         60.9816         -45.9064         60.9835       -0.0246854         142.391
0.623                   -2.76136         158.183         -45.7755         59.2964         -45.7716         59.2979       -0.0249597         142.309
0.624                    -2.8781          156.91         -45.6407         57.5872         -45.6367         57.5883        -0.025238         142.227
0.625                   -3.00193         155.624         -45.5059         55.8542         -45.5021         55.8549       -0.0255205         142.144
0.626                   -3.13335         154.326         -45.3715         54.0974         -45.3677         54.0977       -0.0258073         142.061
0.627                   -3.27284         153.017         -45.2374         52.3168         -45.2338         52.3167       -0.0260982         141.978
0.628                   -3.42095           151.7          -45.104         50.5126         -45.1005         50.5121       -0.0263936         141.895
0.629                   -3.57822         150.377         -44.9714          48.685          -44.968         48.6841       -0.0266934         141.811
0.63                    -3.74524          149.05         -44.8396         46.8343         -44.8364          46.833       -0.0269977         141.727
0.631                   -3.92262         147.721         -44.7089         44.9607         -44.7059         44.9592       -0.0273065         141.643
0.632                     -4.111         146.396         -44.5795         43.0648         -44.5767          43.063         -0.02762         141.559
0.633                   -4.31103         145.077         -44.4516         41.1471         -44.4489          41.145       -0.0279383         141.474
0.634                   -4.52341         143.769         -44.3252          39.208         -44.3228         39.2058       -0.0282614         141.389
0.635                   -4.74883         142.478         -44.2006         37.2484         -44.1984          37.246       -0.0285893         141.303
0.636                   -4.98799         141.209         -44.0779         35.2689         -44.0759         35.2664       -0.0289223         141.218
0.637                    -5.2416         139.971         -43.9574         33.2704         -43.9556         33.2679       -0.0292603         141.132
0.638                   -5.51036          138.77         -43.8391         31.2539         -43.8375         31.2513       -0.0296034         141.045
0.639                   -5.79496         137.617         -43.7233         29.2203         -43.7219         29.2179       -0.0299518         140.959
0.64                    -6.09602         136.522           -43.61         27.1709         -43.6089         27.1685       -0.0303055         140.872
0.641                   -6.41413         135.497         -43.4995         25.1068         -43.4986         25.1046       -0.0306645         140.785
0.642                   -6.74976         134.556         -43.3918         23.0292         -43.3911         23.0273       -0.0310291         140.697
0.643                   -7.10325         133.715         -43.2871         20.9397         -43.2866         20.9381       -0.0313992          140.61
0.644                   -7.47474         132.991         -43.1854         18.8396         -43.1852         18.8383        -0.031775         140.521
0.645                   -7.86411         132.405          -43.087         16.7304         -43.0869         16.7296       -0.0321566         140.433
0.646                    -8.2709         131.979         -42.9918         14.6137         -42.9919         14.6133        -0.032544         140.344
0.647                   -8.69414         131.738         -42.8999         12.4911         -42.9002         12.4912       -0.0329374         140.255
0.648                   -9.13225          131.71         -42.8114         10.3642         -42.8118         10.3649       -0.0333368         140.166
0.649                   -9.58281         131.925         -42.7262          8.2348         -42.7269         8.23609       -0.0337423         140.076
0.65                    -10.0424         132.414         -42.6445         6.10448         -42.6453         6.10638       -0.0341541         139.986
0.651                   -10.5061         133.208         -42.5661         3.97495          -42.567         3.97749       -0.0345723         139.895
0.652                   -10.9678         134.339         -42.4911          1.8479         -42.4921         1.85109       -0.0349969         139.804
0.653                   -11.4192         135.831         -42.4194       -0.275016         -42.4205        -0.27117       -0.0354281         139.713
0.654                   -11.8504         137.701         -42.3509        -2.39218         -42.3521        -2.38768        -0.035866         139.621
0.655                   -12.2497         139.949         -42.2856        -4.50202         -42.2869        -4.49686       -0.0363107         139.529
0.656                   -12.6043         142.556         -42.2233          -6.603         -42.2247         -6.5972       -0.0367623         139.437
0.657                   -12.9014         145.479          -42.164        -8.69367         -42.1654        -8.68725       -0.0372209         139.344
0.658                   -13.1296         148.646         -42.1074        -10.7726         -42.1089        -10.7656       -0.0376868         139.251
0.659                   -13.2803         151.962         -42.0536        -12.8386         -42.0551         -12.831       -0.0381599         139.157
0.66                    -13.3499         155.317         -42.0022        -14.8904         -42.0037        -14.8823       -0.0386405         139.063
0.661                   -13.3394         158.596         -41.9532        -16.9268         -41.9547        -16.9182       -0.0391287         138.968
0.662                    -13.255         161.697         -41.9063        -18.9469         -41.9078        -18.9379       -0.0396247         138.874
0.663                   -13.1067         164.538         -41.8614        -20.9498         -41.8629        -20.9403       -0.0401285         138.778
0.664                   -12.9064          167.06         -41.8182        -22.9345         -41.8197        -22.9247       -0.0406404         138.683
0.665                   -12.6665         169.235         -41.7767        -24.9005         -41.7781        -24.8904       -0.0411606         138.586
0.666                   -12.3989         171.054         -41.7365         -26.847         -41.7379        -26.8367       -0.0416892          138.49
0.667                   -12.1138         172.524         -41.6976        -28.7737         -41.6989        -28.7631       -0.0422263         138.393
0.668                   -11.8198         173.666         -41.6595          -30.68         -41.6608        -30.6693       -0.0427723         138.295
0.669                   -11.5235         174.505         -41.6223        -32.5657         -41.6235        -32.5549       -0.0433272         138.197
0.67                    -11.2302          175.07         -41.5856        -34.4306         -41.5868        -34.4198       -0.0438914         138.098
0.671                   -10.9435         175.389         -41.5493        -36.2745         -41.5504        -36.2637       -0.0444649         137.999
0.672                   -10.6661          175.49         -41.5132        -38.0975         -41.5142        -38.0868       -0.0450481           137.9
0.673                   -10.3998         175.398         -41.4771        -39.8995          -41.478        -39.8889       -0.0456413           137.8
0.674                   -10.1456         175.136         -41.4407        -41.6808         -41.4416        -41.6703       -0.0462445         137.699
0.675                   -9.90429         174.725         -41.4039        -43.4414         -41.4048        -43.4312       -0.0468582         137.598
0.676                   -9.67608         174.182         -41.3666        -45.1817         -41.3673        -45.1718       -0.0474825         137.497
0.677                   -9.46099         173.522         -41.3285        -46.9021         -41.3292        -46.8925       -0.0481179         137.395
0.678                   -9.25887         172.761         -41.2895        -48.6029         -41.2901        -48.5936       -0.0487645         137.292
0.679                   -9.06943         171.908         -41.2494        -50.2846           -41.25        -50.2756       -0.0494226         137.189
0.68                    -8.89231         170.974         -41.2081        -51.9477         -41.2086        -51.9391       -0.0500927         137.085
0.681                    -8.7271         169.968         -41.1654        -53.5927         -41.1658        -53.5845       -0.0507751         136.981
0.682                   -8.57336         168.898         -41.1211        -55.2202         -41.1215        -55.2125         -0.05147         136.876
0.683                   -8.43064         167.769         -41.0753         -56.831         -41.0756        -56.8237       -0.0521779          136.77
0.684                   -8.29851         166.587         -41.0276        -58.4256         -41.0279        -58.4187       -0.0528992         136.664
0.685                   -8.17652         165.356          -40.978        -60.0048         -40.9782        -59.9984       -0.0536342         136.557
0.686                   -8.06427         164.082         -40.9264        -61.5693         -40.9266        -61.5633       -0.0543833          136.45
0.687                   -7.96135         162.766         -40.8727        -63.1199         -40.8729        -63.1144       -0.0551471         136.342
0.688                    -7.8674         161.412         -40.8167        -64.6573         -40.8169        -64.6524       -0.0559259         136.233
0.689                   -7.78207         160.022         -40.7585        -66.1825         -40.7586         -66.178       -0.0567201         136.124
0.69                    -7.70504         158.598         -40.6978        -67.6963         -40.6979        -67.6922       -0.0575303         136.014
0.691                     -7.636         157.142         -40.6347        -69.1994         -40.6347        -69.1958        -0.058357         135.903
0.692                    -7.5747         155.655         -40.5689        -70.6929          -40.569        -70.6897       -0.0592006         135.792
0.693                   -7.52088         154.138         -40.5006        -72.1776         -40.5006        -72.1749       -0.0600617          135.68
0.694                   -7.47433         152.592         -40.4296        -73.6544         -40.4296        -73.6521       -0.0609409         135.567
0.695                   -7.43484         151.017         -40.3558        -75.1242         -40.3558        -75.1223       -0.0618385         135.453
0.696                   -7.40223         149.414         -40.2792        -76.5881         -40.2792        -76.5866       -0.0627554         135.339