! TOUCHSTONE file generated by CST MICROWAVE STUDIO
! Date and time: Sat Nov 14 20:40:50 2020
! Project name: Scenario_1_Planar_Body_Tissue_Out_of_Line_v2.cst
! Parameters = {dy1=-173; L_HA=400; Ltissue=700; MT=2.54; Rad_Dielectric=30; Rad_Lower=7.3; Rad_Upper=30; Wtissue=700; a_HA=580; a_WG=246; b_HA=500; b_WG=121; c_HA=0; c_WG=187; d_feed=85; dx1=173; h_feed=15; h_lower=18; h_upper=40; hfat=3; hgap=25; hmuscle=50; hskin=1.5}
! Header version: 2018
! Port assignment regex: !\s*Touchstone port\s*([0-9]+)\s*=\s*(CST MWS port|CST DS port)\s*([0-9]+|Zmin|Zmax)\s*\(\"(.*)\"\)(\s*mode\s*([0-9]+))?.*
! Touchstone port assignment:
! Touchstone port 1 = CST MWS port 1 ("")
! Touchstone port 2 = CST MWS port 2 ("")
# GHz S DB R 50
0.5                   -0.0482957        -121.746         -59.7704         129.473         -59.7706         129.471      -0.00686772         151.148
0.501                 -0.0486776        -122.198         -59.5911         128.928         -59.5914         128.926      -0.00692578         151.082
0.502                 -0.0491551        -122.653         -59.4095         128.377         -59.4098         128.374      -0.00698466         151.017
0.503                 -0.0497328        -123.112         -59.2255          127.82         -59.2258         127.817      -0.00704438         150.951
0.504                 -0.0504154        -123.574          -59.039         127.258         -59.0394         127.254      -0.00710492         150.886
0.505                 -0.0512081         -124.04         -58.8501         126.688         -58.8505         126.684      -0.00716631          150.82
0.506                 -0.0521165        -124.509         -58.6586         126.113         -58.6591         126.108      -0.00722854         150.754
0.507                 -0.0531464        -124.983         -58.4646         125.531         -58.4651         125.525      -0.00729162         150.689
0.508                 -0.0543044        -125.461          -58.268         124.942         -58.2686         124.936      -0.00735556         150.623
0.509                 -0.0555972        -125.942         -58.0688         124.346         -58.0694          124.34      -0.00742036         150.557
0.51                  -0.0570322        -126.428         -57.8669         123.743         -57.8675         123.737      -0.00748604          150.49
0.511                 -0.0586174        -126.918         -57.6622         123.133         -57.6628         123.126      -0.00755259         150.424
0.512                 -0.0603615        -127.413         -57.4548         122.515         -57.4554         122.508      -0.00762003         150.358
0.513                 -0.0622737        -127.912         -57.2445         121.889         -57.2452         121.882      -0.00768836         150.292
0.514                  -0.064364        -128.416         -57.0314         121.255         -57.0321         121.247       -0.0077576         150.225
0.515                 -0.0666435        -128.925         -56.8153         120.613          -56.816         120.605      -0.00782775         150.159
0.516                 -0.0691237        -129.439         -56.5962         119.961         -56.5969         119.954      -0.00789881         150.092
0.517                 -0.0718177        -129.958          -56.374         119.301         -56.3748         119.293      -0.00797081         150.026
0.518                 -0.0747392        -130.482         -56.1488         118.632         -56.1496         118.624      -0.00804374         149.959
0.519                 -0.0779034        -131.012         -55.9203         117.953         -55.9212         117.945      -0.00811762         149.892
0.52                  -0.0813267        -131.547         -55.6887         117.264         -55.6895         117.255      -0.00819245         149.825
0.521                 -0.0850271        -132.089         -55.4537         116.564         -55.4545         116.556      -0.00826826         149.758
0.522                 -0.0890241        -132.636         -55.2153         115.853         -55.2162         115.845      -0.00834505         149.691
0.523                 -0.0933393         -133.19         -54.9735         115.131         -54.9744         115.123      -0.00842283         149.624
0.524                 -0.0979959         -133.75         -54.7281         114.397         -54.7291         114.388      -0.00850161         149.556
0.525                   -0.10302        -134.317         -54.4792          113.65         -54.4801         113.642      -0.00858142         149.489
0.526                  -0.108439        -134.891         -54.2266          112.89         -54.2275         112.882      -0.00866226         149.422
0.527                  -0.114284        -135.473         -53.9702         112.117         -53.9711         112.108      -0.00874415         149.354
0.528                   -0.12059        -136.062         -53.7099         111.329         -53.7109          111.32      -0.00882711         149.286
0.529                  -0.127393        -136.658         -53.4457         110.525         -53.4467         110.517      -0.00891116         149.219
0.53                   -0.134736        -137.263         -53.1775         109.706         -53.1785         109.698      -0.00899631         149.151
0.531                  -0.142664        -137.877         -52.9052          108.87         -52.9062         108.862      -0.00908259         149.083
0.532                  -0.151227        -138.499         -52.6286         108.016         -52.6296         108.008      -0.00917002         149.015
0.533                  -0.160483        -139.131         -52.3477         107.143         -52.3488         107.135      -0.00925862         148.947
0.534                  -0.170492        -139.772         -52.0624         106.251         -52.0635         106.243      -0.00934844         148.878
0.535                  -0.181326        -140.423         -51.7726         105.337         -51.7736         105.329      -0.00943949          148.81
0.536                   -0.19306        -141.085         -51.4781         104.401         -51.4791         104.393      -0.00953181         148.741
0.537                  -0.205782        -141.757         -51.1789         103.441         -51.1799         103.434      -0.00962544         148.673
0.538                  -0.219587        -142.442         -50.8748         102.456         -50.8758         102.449      -0.00972043         148.604
0.539                  -0.234584        -143.138         -50.5657         101.444         -50.5668         101.437      -0.00981682         148.535
0.54                   -0.250894        -143.846         -50.2516         100.404         -50.2526         100.397      -0.00991467         148.466
0.541                  -0.268653        -144.568         -49.9322         99.3325         -49.9332         99.3259        -0.010014         148.397
0.542                  -0.288014        -145.304         -49.6075         98.2288         -49.6086         98.2224        -0.010115         148.328
0.543                  -0.309151        -146.053         -49.2774         97.0902         -49.2785         97.0841       -0.0102176         148.259
0.544                  -0.332258        -146.818         -48.9418         95.9142         -48.9428         95.9083        -0.010322          148.19
0.545                  -0.357556        -147.598         -48.6006          94.698         -48.6016         94.6925       -0.0104283          148.12
0.546                  -0.385296        -148.395         -48.2536         93.4388         -48.2546         93.4335       -0.0105366          148.05
0.547                  -0.415761        -149.208         -47.9009         92.1334         -47.9019         92.1283        -0.010647         147.981
0.548                  -0.449274        -150.039         -47.5423         90.7781         -47.5433         90.7733       -0.0107597         147.911
0.549                  -0.486202        -150.888         -47.1779         89.3691         -47.1788         89.3647       -0.0108748         147.841
0.55                   -0.526963        -151.755         -46.8075         87.9023         -46.8084         87.8981       -0.0109927         147.771
0.551                  -0.572033        -152.641         -46.4313         86.3731         -46.4322         86.3692       -0.0111136         147.701
0.552                  -0.621955        -153.547         -46.0493         84.7765         -46.0501         84.7729       -0.0112377          147.63
0.553                  -0.677346        -154.472         -45.6616         83.1071         -45.6624         83.1038       -0.0113655          147.56
0.554                  -0.738913        -155.415         -45.2684          81.359         -45.2692          81.356       -0.0114973         147.489
0.555                  -0.807454        -156.377         -44.8699         79.5259         -44.8707         79.5233       -0.0116337         147.418
0.556                  -0.883878        -157.356         -44.4666         77.6011         -44.4674         77.5987       -0.0117751         147.347
0.557                  -0.969211         -158.35          -44.059         75.5772         -44.0597         75.5751       -0.0119224         147.276
0.558                   -1.06461        -159.355         -43.6476         73.4466         -43.6482         73.4447       -0.0120763         147.205
0.559                   -1.17134        -160.369         -43.2332         71.2011         -43.2338         71.1995       -0.0122377         147.133
0.56                    -1.29084        -161.384         -42.8169         68.8324         -42.8175         68.8311       -0.0124076         147.062
0.561                   -1.42462        -162.392         -42.3999         66.3321         -42.4004          66.331       -0.0125875          146.99
0.562                   -1.57432        -163.383         -41.9837         63.6916         -41.9842         63.6907       -0.0127785         146.918
0.563                   -1.74157        -164.343           -41.57         60.9031         -41.5705         60.9023       -0.0129824         146.846
0.564                   -1.92796        -165.253         -41.1611         57.9591         -41.1615         57.9585       -0.0132008         146.774
0.565                   -2.13489        -166.089         -40.7593         54.8537         -40.7597         54.8533       -0.0134354         146.702
0.566                   -2.36329        -166.823         -40.3675         51.5828         -40.3678         51.5824       -0.0136881          146.63
0.567                   -2.61338         -167.42         -39.9889         48.1446         -39.9892         48.1444       -0.0139604         146.557
0.568                    -2.8842        -167.837         -39.6269         44.5408         -39.6271         44.5407       -0.0142534         146.485
0.569                   -3.17312        -168.027         -39.2851         40.7771         -39.2852         40.7769       -0.0145676         146.412
0.57                     -3.4752        -167.942         -38.9672         36.8636         -38.9673         36.8634       -0.0149022         146.339
0.571                   -3.78264        -167.532         -38.6768         32.8156         -38.6769         32.8154       -0.0152548         146.267
0.572                   -4.08441        -166.761         -38.4173         28.6536         -38.4173         28.6533       -0.0156214         146.194
0.573                   -4.36641         -165.61         -38.1913         24.4029         -38.1914         24.4026       -0.0159958         146.122
0.574                   -4.61246        -164.092         -38.0011         20.0929         -38.0011         20.0925       -0.0163702         146.049
0.575                   -4.80631        -162.261         -37.8477         15.7557         -37.8477         15.7552       -0.0167357         145.977
0.576                   -4.93443        -160.207         -37.7314         11.4246         -37.7314         11.4241       -0.0170834         145.905
0.577                   -4.98887        -158.056         -37.6514         7.13262         -37.6513         7.13208       -0.0174056         145.833
0.578                   -4.96899        -155.942         -37.6058         2.91025         -37.6058         2.90969       -0.0176967          145.76
0.579                   -4.88137        -153.989         -37.5923        -1.21549         -37.5922        -1.21602       -0.0179542         145.688
0.58                    -4.73796        -152.292         -37.6075        -5.22217         -37.6075        -5.22267       -0.0181783         145.616
0.581                    -4.5533        -150.905         -37.6481        -9.09252          -37.648        -9.09295       -0.0183718         145.543
0.582                   -4.34197         -149.85         -37.7102        -12.8144         -37.7102        -12.8148       -0.0185391          145.47
0.583                   -4.11675        -149.119         -37.7903        -16.3806         -37.7903        -16.3808       -0.0186855         145.397
0.584                   -3.88783        -148.684         -37.8848        -19.7881         -37.8847        -19.7882       -0.0188164         145.324
0.585                   -3.66267        -148.511         -37.9903        -23.0374         -37.9903        -23.0374        -0.018937          145.25
0.586                   -3.44632        -148.562         -38.1039        -26.1321         -38.1039         -26.132       -0.0190515         145.176
0.587                   -3.24191          -148.8         -38.2231        -29.0777          -38.223        -29.0774       -0.0191636         145.102
0.588                    -3.0511        -149.191         -38.3454        -31.8812         -38.3454        -31.8808       -0.0192761         145.027
0.589                   -2.87454        -149.707         -38.4691        -34.5507          -38.469        -34.5502       -0.0193913         144.953
0.59                    -2.71219        -150.323         -38.5924        -37.0947         -38.5924        -37.0942       -0.0195108         144.878
0.591                   -2.56358        -151.018         -38.7141        -39.5221          -38.714        -39.5214       -0.0196357         144.802
0.592                   -2.42796        -151.778         -38.8331        -41.8415          -38.833        -41.8408       -0.0197668         144.727
0.593                   -2.30448        -152.587         -38.9484        -44.0616         -38.9483        -44.0608       -0.0199045         144.651
0.594                    -2.1922        -153.436         -39.0595        -46.1905         -39.0593        -46.1897       -0.0200493         144.575
0.595                   -2.09021        -154.316         -39.1657         -48.236         -39.1656        -48.2352       -0.0202013         144.499
0.596                   -1.99762        -155.221         -39.2668        -50.2055         -39.2666        -50.2047       -0.0203605         144.423
0.597                    -1.9136        -156.145         -39.3624        -52.1059         -39.3622        -52.1051        -0.020527         144.346
0.598                   -1.83738        -157.084         -39.4523        -53.9437          -39.452        -53.9429       -0.0207006         144.269
0.599                   -1.76825        -158.036         -39.5364        -55.7247         -39.5362        -55.7239       -0.0208814         144.192
0.6                     -1.70557        -158.997         -39.6147        -57.4546         -39.6145        -57.4539       -0.0210693         144.115
0.601                   -1.64877        -159.966         -39.6873        -59.1385          -39.687        -59.1378        -0.021264         144.038
0.602                   -1.59733        -160.942          -39.754        -60.7811         -39.7538        -60.7805       -0.0214657          143.96
0.603                   -1.55077        -161.923         -39.8151        -62.3868         -39.8149        -62.3863        -0.021674         143.882
0.604                   -1.50869        -162.909         -39.8707        -63.9596         -39.8705        -63.9591       -0.0218891         143.804
0.605                   -1.47072        -163.899         -39.9209        -65.5031         -39.9207        -65.5027       -0.0221107         143.726
0.606                   -1.43651        -164.893         -39.9659        -67.0208         -39.9656        -67.0205       -0.0223388         143.648
0.607                   -1.40578        -165.892         -40.0058        -68.5157         -40.0056        -68.5155       -0.0225734         143.569
0.608                   -1.37827        -166.894          -40.041        -69.9907         -40.0407        -69.9905       -0.0228143          143.49
0.609                   -1.35373        -167.901         -40.0715        -71.4482         -40.0712        -71.4481       -0.0230615         143.411
0.61                    -1.33196        -168.911         -40.0976        -72.8906         -40.0973        -72.8906       -0.0233149         143.332
0.611                   -1.31277        -169.926         -40.1195          -74.32         -40.1193        -74.3201       -0.0235745         143.252
0.612                   -1.29601        -170.946         -40.1375        -75.7382         -40.1373        -75.7383       -0.0238401         143.173
0.613                   -1.28151        -171.971         -40.1519        -77.1468         -40.1517        -77.1469       -0.0241118         143.093
0.614                   -1.26916        -173.001         -40.1628        -78.5471         -40.1626        -78.5472       -0.0243894         143.013
0.615                   -1.25884        -174.037         -40.1705        -79.9403         -40.1703        -79.9405       -0.0246728         142.933
0.616                   -1.25045        -175.078         -40.1752        -81.3275         -40.1751        -81.3276       -0.0249618         142.852
0.617                   -1.24389        -176.127         -40.1772        -82.7094         -40.1771        -82.7095       -0.0252565         142.771
0.618                   -1.23909        -177.182         -40.1766        -84.0866         -40.1765        -84.0866       -0.0255566          142.69
0.619                   -1.23598        -178.245         -40.1738        -85.4594         -40.1737        -85.4594       -0.0258619         142.609
0.62                    -1.23451        -179.315         -40.1688        -86.8282         -40.1687        -86.8282       -0.0261723         142.528
0.621                   -1.23461         179.606         -40.1619        -88.1931         -40.1619        -88.1929       -0.0264876         142.446
0.622                   -1.23626         178.518         -40.1533        -89.5539         -40.1532        -89.5537       -0.0268075         142.364
0.623                    -1.2394         177.422          -40.143        -90.9106          -40.143        -90.9103       -0.0271319         142.282
0.624                   -1.24403         176.315         -40.1313        -92.2628         -40.1313        -92.2624       -0.0274603           142.2
0.625                    -1.2501         175.199         -40.1182        -93.6102         -40.1182        -93.6098       -0.0277927         142.118
0.626                   -1.25761         174.072         -40.1038        -94.9524         -40.1038        -94.9519       -0.0281285         142.035
0.627                   -1.26654         172.934         -40.0882         -96.289         -40.0882        -96.2883       -0.0284677         141.952
0.628                    -1.2769         171.784         -40.0714        -97.6193         -40.0714        -97.6186       -0.0288098         141.869
0.629                   -1.28866         170.622         -40.0534         -98.943         -40.0534        -98.9422       -0.0291545         141.785
0.63                    -1.30185         169.447         -40.0343         -100.26         -40.0343        -100.259       -0.0295015         141.701
0.631                   -1.31647         168.259         -40.0139        -101.569         -40.0139        -101.568       -0.0298506         141.617
0.632                   -1.33253         167.058         -39.9924         -102.87         -39.9923        -102.869       -0.0302015         141.533
0.633                   -1.35006         165.842         -39.9695        -104.163         -39.9694        -104.162       -0.0305539         141.449
0.634                   -1.36906         164.611         -39.9452        -105.447         -39.9452        -105.447       -0.0309077         141.364
0.635                   -1.38958         163.364         -39.9195        -106.724         -39.9195        -106.723       -0.0312627         141.279
0.636                   -1.41164         162.102         -39.8923        -107.992         -39.8922        -107.991       -0.0316187         141.193
0.637                   -1.43527         160.823         -39.8633        -109.251         -39.8633         -109.25       -0.0319759         141.108
0.638                   -1.46052         159.526         -39.8327        -110.503         -39.8326        -110.502        -0.032334         141.022
0.639                   -1.48743         158.212         -39.8001        -111.746         -39.8001        -111.746       -0.0326933         140.935
0.64                    -1.51604         156.879         -39.7656        -112.983         -39.7656        -112.983       -0.0330538         140.849
0.641                   -1.54642         155.526         -39.7291        -114.213          -39.729        -114.213       -0.0334157         140.762
0.642                   -1.57863         154.154         -39.6904        -115.437         -39.6903        -115.437       -0.0337792         140.675
0.643                   -1.61271          152.76         -39.6494        -116.656         -39.6494        -116.656       -0.0341446         140.587
0.644                   -1.64875         151.346         -39.6061         -117.87         -39.6061         -117.87       -0.0345123         140.499
0.645                   -1.68681         149.909         -39.5605        -119.081         -39.5605        -119.081       -0.0348825         140.411
0.646                   -1.72697         148.449         -39.5125         -120.29         -39.5125         -120.29       -0.0352558         140.323
0.647                   -1.76932         146.965         -39.4619        -121.497          -39.462        -121.497       -0.0356324         140.234
0.648                   -1.81395         145.456         -39.4089        -122.704          -39.409        -122.704       -0.0360128         140.144
0.649                   -1.86095         143.922         -39.3534        -123.911         -39.3535        -123.912       -0.0363976         140.055
0.65                    -1.91041         142.362         -39.2955         -125.12         -39.2955        -125.121        -0.036787         139.965
0.651                   -1.96246         140.774          -39.235        -126.333         -39.2351        -126.333       -0.0371817         139.874
0.652                   -2.01719         139.158         -39.1721        -127.549         -39.1722         -127.55       -0.0375819         139.783
0.653                   -2.07474         137.513         -39.1067        -128.771         -39.1069        -128.772       -0.0379883         139.692
0.654                   -2.13522         135.837         -39.0391        -129.999         -39.0393            -130       -0.0384011           139.6
0.655                   -2.19877          134.13         -38.9691        -131.235         -38.9693        -131.235       -0.0388209         139.508
0.656                   -2.26552          132.39          -38.897        -132.478         -38.8972        -132.479        -0.039248         139.416
0.657                   -2.33563         130.617         -38.8227        -133.732          -38.823        -133.732       -0.0396828         139.323
0.658                   -2.40924          128.81         -38.7465        -134.996         -38.7467        -134.996       -0.0401257          139.23
0.659                   -2.48652         126.966         -38.6684        -136.271         -38.6686        -136.271        -0.040577         139.136
0.66                    -2.56764         125.085         -38.5885        -137.559         -38.5887        -137.559       -0.0410372         139.042
0.661                   -2.65276         123.166          -38.507        -138.859         -38.5072        -138.859       -0.0415065         138.947
0.662                   -2.74206         121.207          -38.424        -140.174         -38.4242        -140.174       -0.0419852         138.852
0.663                   -2.83574         119.207         -38.3396        -141.503         -38.3399        -141.503       -0.0424737         138.757
0.664                   -2.93399         117.164         -38.2542        -142.848         -38.2545        -142.847       -0.0429723         138.661
0.665                     -3.037         115.078         -38.1677        -144.208          -38.168        -144.208       -0.0434813         138.565
0.666                   -3.14498         112.945         -38.0804        -145.585         -38.0807        -145.585       -0.0440009         138.468
0.667                   -3.25814         110.765         -37.9925        -146.979         -37.9928        -146.978       -0.0445314          138.37
0.668                   -3.37668         108.536         -37.9041         -148.39         -37.9044        -148.389       -0.0450731         138.273
0.669                   -3.50083         106.255         -37.8155        -149.818         -37.8157        -149.817       -0.0456262         138.174
0.67                    -3.63079         103.922         -37.7268        -151.265          -37.727        -151.263       -0.0461912         138.076
0.671                   -3.76677         101.534         -37.6383        -152.729         -37.6385        -152.727       -0.0467681         137.976
0.672                     -3.909         99.0896         -37.5501         -154.21         -37.5503        -154.209       -0.0473573         137.877
0.673                   -4.05766         96.5855         -37.4624         -155.71         -37.4627        -155.708        -0.047959         137.776
0.674                   -4.21296         94.0197         -37.3756        -157.227         -37.3758        -157.225       -0.0485736         137.676
0.675                   -4.37507         91.3899         -37.2897        -158.761         -37.2899        -158.759       -0.0492013         137.574
0.676                   -4.54417         88.6932          -37.205        -160.312         -37.2051         -160.31       -0.0498424         137.472
0.677                   -4.72039         85.9269         -37.1216        -161.879         -37.1218        -161.878       -0.0504972          137.37
0.678                   -4.90385         83.0878         -37.0399        -163.462           -37.04        -163.461       -0.0511659         137.267
0.679                   -5.09464         80.1728         -36.9598         -165.06           -36.96        -165.059        -0.051849         137.163
0.68                    -5.29279         77.1784         -36.8818        -166.673         -36.8819        -166.672       -0.0525466         137.059
0.681                   -5.49828         74.1008         -36.8058        -168.299         -36.8059        -168.297       -0.0532592         136.955
0.682                   -5.71106         70.9362         -36.7322        -169.937         -36.7322        -169.936        -0.053987          136.85
0.683                   -5.93095         67.6803          -36.661        -171.587          -36.661        -171.585       -0.0547304         136.744
0.684                   -6.15774         64.3287         -36.5923        -173.246         -36.5924        -173.245       -0.0554898         136.637
0.685                   -6.39108         60.8769         -36.5264        -174.915         -36.5264        -174.914       -0.0562655          136.53
0.686                    -6.6305         57.3199         -36.4633        -176.591         -36.4633         -176.59       -0.0570579         136.423
0.687                    -6.8754         53.6528         -36.4032        -178.274         -36.4031        -178.273       -0.0578673         136.314
0.688                   -7.12503         49.8705          -36.346        -179.961          -36.346         -179.96       -0.0586942         136.205
0.689                   -7.37843          45.968         -36.2919         178.348         -36.2919         178.349       -0.0595391         136.096
0.69                    -7.63445         41.9405         -36.2409         176.656         -36.2409         176.656       -0.0604022         135.985
0.691                   -7.89174         37.7836         -36.1931         174.963         -36.1931         174.963       -0.0612841         135.874
0.692                   -8.14867         33.4935         -36.1484         173.271         -36.1484         173.271       -0.0621852         135.763
0.693                   -8.40339         29.0672         -36.1069         171.581         -36.1068         171.582        -0.063106          135.65
0.694                   -8.65379         24.5031         -36.0685         169.896         -36.0684         169.897       -0.0640471         135.537
0.695                   -8.89752         19.8015         -36.0331         168.217         -36.0331         168.217       -0.0650087         135.423
0.696                   -9.13202         14.9645         -36.0008         166.544         -36.0007         166.544       -0.0659916         135.309