! TOUCHSTONE file generated by CST MICROWAVE STUDIO
! Date and time: Mon Nov 30 09:10:42 2020
! Project name: Scenario_1_Planar_Body_Tissue_Out_of_Line_v2.cst
! Parameters = {dy1=173; L_HA=400; Ltissue=700; MT=2.54; Rad_Dielectric=30; Rad_Lower=7.3; Rad_Upper=30; Wtissue=700; a_HA=580; a_WG=246; b_HA=500; b_WG=121; c_HA=0; c_WG=187; d_feed=85; dx1=346; h_feed=15; h_lower=18; h_upper=40; hfat=3; hgap=25; hmuscle=50; hskin=1.5}
! Header version: 2018
! Port assignment regex: !\s*Touchstone port\s*([0-9]+)\s*=\s*(CST MWS port|CST DS port)\s*([0-9]+|Zmin|Zmax)\s*\(\"(.*)\"\)(\s*mode\s*([0-9]+))?.*
! Touchstone port assignment:
! Touchstone port 1 = CST MWS port 1 ("")
! Touchstone port 2 = CST MWS port 2 ("")
# GHz S DB R 50
0.5                    -0.264385         -121.82         -56.4714         22.0821         -56.4713         22.0829      -0.00828823         151.148
0.501                  -0.264379        -122.201         -56.3562         20.3603         -56.3561         20.3607      -0.00834629         151.083
0.502                  -0.264461        -122.585          -56.242         18.6127         -56.2419         18.6127       -0.0084047         151.018
0.503                  -0.264632        -122.972         -56.1289         16.8397         -56.1288         16.8393      -0.00846348         150.952
0.504                  -0.264892        -123.362         -56.0173         15.0419         -56.0172          15.041      -0.00852264         150.887
0.505                  -0.265243        -123.754         -55.9072         13.2197         -55.9071         13.2186       -0.0085822         150.822
0.506                  -0.265684         -124.15          -55.799         11.3742         -55.7989         11.3726      -0.00864216         150.756
0.507                  -0.266216        -124.549         -55.6929         9.50604         -55.6928         9.50414      -0.00870254         150.691
0.508                  -0.266842        -124.951          -55.589         7.61641         -55.5889         7.61418      -0.00876335         150.625
0.509                  -0.267561        -125.355         -55.4876         5.70649         -55.4875         5.70395      -0.00882461         150.559
0.51                   -0.268374        -125.763         -55.3889         3.77764         -55.3888         3.77482      -0.00888633         150.494
0.511                  -0.269284        -126.175         -55.2931         1.83137          -55.293         1.82828      -0.00894852         150.428
0.512                   -0.27029        -126.589         -55.2003       -0.130674         -55.2003       -0.134003       -0.0090112         150.362
0.513                  -0.271394        -127.007         -55.1109        -2.10668         -55.1109        -2.11023      -0.00907438         150.296
0.514                  -0.272598        -127.428         -55.0248        -4.09472         -55.0248        -4.09845      -0.00913807          150.23
0.515                  -0.273903        -127.852         -54.9423        -6.09273         -54.9424        -6.09663       -0.0092023         150.163
0.516                  -0.275311         -128.28         -54.8635        -8.09855         -54.8636        -8.10258      -0.00926708         150.097
0.517                  -0.276823        -128.711         -54.7885        -10.1099         -54.7886         -10.114      -0.00933241         150.031
0.518                  -0.278441        -129.146         -54.7173        -12.1244         -54.7174        -12.1286      -0.00939833         149.964
0.519                  -0.280166        -129.584         -54.6499        -14.1397         -54.6501        -14.1439      -0.00946483         149.898
0.52                   -0.282002        -130.026         -54.5864        -16.1533         -54.5866        -16.1576      -0.00953195         149.831
0.521                   -0.28395        -130.472         -54.5268        -18.1627          -54.527         -18.167      -0.00959969         149.764
0.522                  -0.286012        -130.922          -54.471        -20.1655         -54.4712        -20.1697      -0.00966807         149.697
0.523                  -0.288191        -131.375         -54.4189        -22.1591         -54.4192        -22.1633      -0.00973711          149.63
0.524                   -0.29049        -131.832         -54.3704        -24.1413         -54.3707        -24.1454      -0.00980683         149.563
0.525                  -0.292911        -132.294         -54.3254        -26.1097         -54.3257        -26.1137      -0.00987724         149.496
0.526                  -0.295457        -132.759         -54.2837         -28.062          -54.284        -28.0659      -0.00994836         149.429
0.527                  -0.298132        -133.228         -54.2451        -29.9962         -54.2454        -29.9999       -0.0100202         149.362
0.528                  -0.300939        -133.701         -54.2094        -31.9101         -54.2097        -31.9137       -0.0100928         149.294
0.529                  -0.303882        -134.179         -54.1764         -33.802         -54.1767        -33.8054       -0.0101662         149.227
0.53                   -0.306964        -134.661         -54.1457        -35.6701          -54.146        -35.6733       -0.0102403         149.159
0.531                  -0.310191        -135.147         -54.1172         -37.513         -54.1175         -37.516       -0.0103153         149.092
0.532                  -0.313565        -135.638         -54.0904        -39.3291         -54.0908        -39.3319        -0.010391         149.024
0.533                  -0.317092        -136.133         -54.0653        -41.1174         -54.0656        -41.1199       -0.0104677         148.956
0.534                  -0.320777        -136.633         -54.0413        -42.8767         -54.0417        -42.8791       -0.0105451         148.888
0.535                  -0.324625        -137.138         -54.0183        -44.6063         -54.0186        -44.6085       -0.0106235          148.82
0.536                  -0.328643        -137.647         -53.9959        -46.3054         -53.9962        -46.3074       -0.0107028         148.752
0.537                  -0.332835        -138.161         -53.9737        -47.9736          -53.974        -47.9754        -0.010783         148.684
0.538                  -0.337209         -138.68         -53.9516        -49.6106         -53.9519        -49.6122       -0.0108641         148.615
0.539                  -0.341772        -139.204         -53.9291        -51.2161         -53.9294        -51.2175       -0.0109463         148.547
0.54                   -0.346531        -139.734          -53.906        -52.7901         -53.9063        -52.7913       -0.0110294         148.478
0.541                  -0.351494        -140.268          -53.882        -54.3328         -53.8822        -54.3338       -0.0111135         148.409
0.542                  -0.356668        -140.808         -53.8567        -55.8443          -53.857        -55.8452       -0.0111987         148.341
0.543                  -0.362064        -141.353           -53.83        -57.3252         -53.8302        -57.3259       -0.0112849         148.272
0.544                  -0.367691        -141.904         -53.8015        -58.7758         -53.8017        -58.7763       -0.0113723         148.203
0.545                  -0.373558         -142.46         -53.7711        -60.1967         -53.7712        -60.1972       -0.0114607         148.133
0.546                  -0.379677        -143.023         -53.7383        -61.5887         -53.7384        -61.5891       -0.0115503         148.064
0.547                   -0.38606        -143.591         -53.7031        -62.9526         -53.7032        -62.9528        -0.011641         147.995
0.548                  -0.392717        -144.165         -53.6652        -64.2892         -53.6653        -64.2893        -0.011733         147.925
0.549                  -0.399664        -144.745         -53.6244        -65.5994         -53.6244        -65.5995       -0.0118261         147.856
0.55                   -0.406912        -145.332         -53.5805        -66.8843         -53.5805        -66.8843       -0.0119205         147.786
0.551                  -0.414479        -145.924         -53.5333        -68.1448         -53.5333        -68.1448       -0.0120162         147.716
0.552                  -0.422378        -146.524         -53.4827        -69.3822         -53.4826        -69.3821       -0.0121132         147.646
0.553                  -0.430629         -147.13         -53.4285        -70.5976         -53.4284        -70.5974       -0.0122115         147.576
0.554                  -0.439247        -147.743         -53.3705        -71.7921         -53.3704        -71.7919       -0.0123111         147.506
0.555                  -0.448254        -148.363         -53.3086        -72.9669         -53.3085        -72.9668       -0.0124122         147.436
0.556                  -0.457669         -148.99         -53.2428        -74.1234         -53.2427        -74.1232       -0.0125146         147.365
0.557                  -0.467516        -149.624         -53.1729        -75.2628         -53.1728        -75.2626       -0.0126185         147.295
0.558                  -0.477816        -150.266         -53.0988        -76.3864         -53.0986        -76.3862       -0.0127239         147.224
0.559                  -0.488597        -150.915         -53.0204        -77.4954         -53.0202        -77.4953       -0.0128308         147.153
0.56                   -0.499884        -151.573         -52.9376        -78.5913         -52.9374        -78.5912       -0.0129393         147.082
0.561                  -0.511707        -152.238         -52.8504        -79.6754         -52.8502        -79.6753       -0.0130493         147.011
0.562                  -0.524097        -152.911         -52.7587        -80.7489         -52.7585        -80.7489       -0.0131609          146.94
0.563                  -0.537088        -153.593         -52.6625        -81.8133         -52.6622        -81.8133       -0.0132742         146.869
0.564                  -0.550713        -154.284         -52.5617        -82.8699         -52.5614        -82.8699       -0.0133892         146.797
0.565                  -0.565013        -154.983         -52.4563          -83.92          -52.456        -83.9201       -0.0135059         146.726
0.566                  -0.580028        -155.692         -52.3462         -84.965         -52.3459        -84.9652       -0.0136243         146.654
0.567                  -0.595801        -156.409         -52.2315        -86.0063         -52.2312        -86.0065       -0.0137446         146.582
0.568                   -0.61238        -157.136         -52.1121        -87.0452         -52.1119        -87.0455       -0.0138666          146.51
0.569                  -0.629815        -157.873         -51.9881        -88.0831         -51.9878        -88.0834       -0.0139905         146.438
0.57                   -0.648162         -158.62         -51.8594        -89.1214         -51.8592        -89.1217       -0.0141164         146.365
0.571                  -0.667478        -159.377         -51.7261        -90.1613         -51.7258        -90.1617       -0.0142441         146.293
0.572                  -0.687826        -160.144         -51.5881        -91.2043         -51.5878        -91.2047       -0.0143739          146.22
0.573                  -0.709274        -160.922         -51.4455        -92.2517         -51.4453        -92.2522       -0.0145057         146.148
0.574                  -0.731894        -161.712         -51.2984        -93.3049         -51.2981        -93.3054       -0.0146395         146.075
0.575                  -0.755766        -162.512         -51.1467        -94.3652         -51.1464        -94.3658       -0.0147755         146.002
0.576                  -0.780974        -163.324         -50.9905         -95.434         -50.9902        -95.4347       -0.0149136         145.929
0.577                  -0.807608        -164.147         -50.8298        -96.5127         -50.8296        -96.5134       -0.0150539         145.855
0.578                  -0.835767        -164.983         -50.6647        -97.6026         -50.6645        -97.6034       -0.0151965         145.782
0.579                  -0.865556        -165.831         -50.4954        -98.7052         -50.4951         -98.706       -0.0153413         145.708
0.58                    -0.89709        -166.691         -50.3217        -99.8218         -50.3215        -99.8226       -0.0154885         145.634
0.581                  -0.930493        -167.565         -50.1438        -100.954         -50.1436        -100.955       -0.0156381         145.561
0.582                  -0.965896        -168.451         -49.9618        -102.103         -49.9616        -102.103         -0.01579         145.486
0.583                   -1.00344        -169.351         -49.7758        -103.269         -49.7756         -103.27       -0.0159445         145.412
0.584                   -1.04329        -170.264         -49.5859        -104.456         -49.5857        -104.457       -0.0161014         145.338
0.585                   -1.08561        -171.191         -49.3921        -105.664          -49.392        -105.665       -0.0162609         145.263
0.586                   -1.13057        -172.131         -49.1947        -106.894         -49.1945        -106.895       -0.0164231         145.188
0.587                   -1.17838        -173.086         -48.9936        -108.148         -48.9935        -108.149       -0.0165878         145.113
0.588                   -1.22924        -174.055         -48.7891        -109.427          -48.789        -109.428       -0.0167553         145.038
0.589                   -1.28339        -175.037         -48.5813        -110.734         -48.5812        -110.734       -0.0169256         144.963
0.59                    -1.34106        -176.034         -48.3704        -112.068         -48.3702        -112.069       -0.0170987         144.888
0.591                   -1.40253        -177.045         -48.1564        -113.433         -48.1563        -113.433       -0.0172746         144.812
0.592                   -1.46808        -178.069         -47.9397        -114.828         -47.9396        -114.829       -0.0174534         144.736
0.593                   -1.53801        -179.107         -47.7204        -116.256         -47.7203        -116.257       -0.0176352          144.66
0.594                   -1.61266         179.842         -47.4987        -117.719         -47.4986         -117.72       -0.0178199         144.584
0.595                   -1.69238         178.778         -47.2749        -119.217         -47.2748        -119.218       -0.0180077         144.508
0.596                   -1.77756         177.703         -47.0492        -120.752         -47.0491        -120.753       -0.0181986         144.432
0.597                   -1.86859         176.617         -46.8218        -122.326         -46.8218        -122.326       -0.0183927         144.355
0.598                   -1.96592         175.522         -46.5932        -123.939         -46.5931        -123.939       -0.0185899         144.278
0.599                   -2.07001         174.419         -46.3635        -125.593         -46.3635        -125.593       -0.0187903         144.201
0.6                     -2.18135          173.31         -46.1332        -127.289         -46.1332         -127.29        -0.018994         144.124
0.601                   -2.30045         172.196         -45.9026        -129.029         -45.9025        -129.029       -0.0192011         144.046
0.602                   -2.42785         171.082          -45.672        -130.813          -45.672        -130.813       -0.0194114         143.969
0.603                   -2.56413         169.969         -45.4419        -132.642         -45.4419        -132.642       -0.0196252         143.891
0.604                   -2.70986         168.862         -45.2128        -134.516         -45.2128        -134.517       -0.0198423         143.813
0.605                   -2.86565         167.765          -44.985        -136.437          -44.985        -136.438       -0.0200629         143.735
0.606                   -3.03209         166.683         -44.7591        -138.405          -44.759        -138.405        -0.020287         143.656
0.607                   -3.20978         165.623         -44.5355        -140.419         -44.5354        -140.419       -0.0205146         143.578
0.608                    -3.3993         164.591         -44.3147         -142.48         -44.3147         -142.48       -0.0207457         143.499
0.609                   -3.60118         163.595         -44.0974        -144.586         -44.0974        -144.586       -0.0209803          143.42
0.61                     -3.8159         162.645         -43.8839        -146.738         -43.8839        -146.738       -0.0212185         143.341
0.611                   -4.04384         161.751         -43.6749        -148.934         -43.6749        -148.934       -0.0214602         143.261
0.612                   -4.28524         160.926          -43.471        -151.172         -43.4709        -151.172       -0.0217055         143.181
0.613                   -4.54019         160.182         -43.2725        -153.451         -43.2725        -153.451       -0.0219544         143.102
0.614                    -4.8085         159.536         -43.0801        -155.769           -43.08        -155.769       -0.0222068         143.021
0.615                    -5.0897         159.003         -42.8941        -158.122         -42.8941        -158.122       -0.0224627         142.941
0.616                   -5.38291         158.603         -42.7152        -160.508         -42.7152        -160.508       -0.0227222         142.861
0.617                   -5.68675         158.353         -42.5437        -162.924         -42.5437        -162.924       -0.0229853          142.78
0.618                   -5.99926         158.275           -42.38        -165.366           -42.38        -165.365       -0.0232518         142.699
0.619                   -6.31775         158.389         -42.2244        -167.829         -42.2243        -167.829       -0.0235217         142.618
0.62                    -6.63868         158.713         -42.0771        -170.311         -42.0771        -170.311       -0.0237951         142.536
0.621                   -6.95764         159.266         -41.9384        -172.806         -41.9384        -172.805       -0.0240719         142.454
0.622                   -7.26922          160.06         -41.8084        -175.309         -41.8083        -175.309        -0.024352         142.372
0.623                   -7.56715         161.102         -41.6871        -177.818         -41.6871        -177.818       -0.0246355          142.29
0.624                    -7.8444          162.39         -41.5745         179.674         -41.5745         179.674       -0.0249221         142.208
0.625                   -8.09355          163.91         -41.4706         177.171         -41.4705         177.171        -0.025212         142.125
0.626                   -8.30727         165.638         -41.3751         174.676          -41.375         174.676       -0.0255051         142.042
0.627                   -8.47896         167.534         -41.2878         172.195         -41.2877         172.195       -0.0258012         141.959
0.628                   -8.60342         169.547         -41.2085         169.731         -41.2084         169.731       -0.0261004         141.876
0.629                   -8.67747         171.619         -41.1367         167.287         -41.1366         167.287       -0.0264026         141.792
0.63                    -8.70033         173.685         -41.0721         164.868         -41.0721         164.868       -0.0267078         141.708
0.631                   -8.67368         175.685         -41.0143         162.476         -41.0143         162.476       -0.0270159         141.624
0.632                   -8.60139         177.564         -40.9628         160.114         -40.9627         160.114        -0.027327         141.539
0.633                     -8.489         179.275         -40.9171         157.784         -40.9171         157.784       -0.0276409         141.454
0.634                   -8.34308        -179.213         -40.8767         155.488         -40.8767         155.488       -0.0279578         141.369
0.635                   -8.17052        -177.921         -40.8411         153.228         -40.8411         153.227       -0.0282775         141.284
0.636                   -7.97807        -176.856         -40.8099         151.004         -40.8098         151.004       -0.0286002         141.198
0.637                   -7.77188         -176.02         -40.7824         148.817         -40.7823         148.817       -0.0289259         141.112
0.638                   -7.55735        -175.403         -40.7582         146.669         -40.7581         146.669       -0.0292546         141.026
0.639                   -7.33899        -174.995         -40.7367         144.559         -40.7367         144.559       -0.0295865         140.939
0.64                    -7.12047        -174.781         -40.7177         142.488         -40.7176         142.488       -0.0299216         140.852
0.641                   -6.90467        -174.744         -40.7005         140.454         -40.7005         140.454       -0.0302601         140.765
0.642                   -6.69377        -174.867         -40.6848         138.458         -40.6848         138.458        -0.030602         140.678
0.643                    -6.4894        -175.135         -40.6702         136.499         -40.6702         136.499       -0.0309477          140.59
0.644                   -6.29268        -175.533         -40.6562         134.577         -40.6562         134.576       -0.0312972         140.501
0.645                   -6.10439        -176.047         -40.6427         132.689         -40.6426         132.689       -0.0316507         140.413
0.646                   -5.92499        -176.664         -40.6291         130.836         -40.6291         130.836       -0.0320086         140.324
0.647                    -5.7547        -177.373         -40.6152         129.016         -40.6152         129.016       -0.0323711         140.234
0.648                   -5.59361        -178.163         -40.6008         127.228         -40.6008         127.228       -0.0327383         140.145
0.649                   -5.44164        -179.026         -40.5855          125.47         -40.5855          125.47       -0.0331107         140.055
0.65                    -5.29864        -179.954         -40.5692         123.742         -40.5692         123.742       -0.0334885         139.964
0.651                   -5.16438         179.059         -40.5516         122.042         -40.5516         122.042        -0.033872         139.874
0.652                   -5.03861          178.02         -40.5325         120.369         -40.5325         120.369       -0.0342615         139.782
0.653                   -4.92102         176.934         -40.5118         118.721         -40.5118         118.721       -0.0346575         139.691
0.654                   -4.81132         175.805         -40.4893         117.097         -40.4893         117.097       -0.0350601         139.599
0.655                    -4.7092         174.636         -40.4648         115.496         -40.4648         115.496       -0.0354698         139.506
0.656                   -4.61434         173.432         -40.4383         113.917         -40.4383         113.917       -0.0358869         139.414
0.657                   -4.52644         172.194         -40.4095         112.357         -40.4095         112.357       -0.0363118          139.32
0.658                   -4.44523         170.925         -40.3785         110.816         -40.3785         110.816       -0.0367448         139.227
0.659                   -4.37041         169.627         -40.3451         109.293         -40.3451         109.293       -0.0371863         139.133
0.66                    -4.30174         168.301         -40.3092         107.786         -40.3092         107.785       -0.0376365         139.038
0.661                   -4.23896         166.949         -40.2707         106.293         -40.2707         106.293        -0.038096         138.943
0.662                   -4.18186         165.572         -40.2297         104.815         -40.2297         104.814        -0.038565         138.848
0.663                   -4.13021         164.171          -40.186         103.348          -40.186         103.348       -0.0390438         138.752
0.664                   -4.08384         162.745         -40.1396         101.893         -40.1396         101.893       -0.0395328         138.656
0.665                   -4.04256         161.296         -40.0905         100.449         -40.0905         100.449       -0.0400323         138.559
0.666                   -4.00621         159.824         -40.0387         99.0129         -40.0387         99.0129       -0.0405426         138.462
0.667                   -3.97466         158.328          -39.984         97.5849          -39.984         97.5849       -0.0410642         138.364
0.668                   -3.94777          156.81         -39.9266         96.1636         -39.9266         96.1636       -0.0415972         138.266
0.669                   -3.92544         155.268         -39.8664         94.7479         -39.8664         94.7479       -0.0421421         138.167
0.67                    -3.90757         153.703         -39.8033         93.3368         -39.8033         93.3368       -0.0426991         138.068
0.671                   -3.89408         152.114         -39.7375         91.9291         -39.7375         91.9291       -0.0432685         137.969
0.672                   -3.88491         150.501         -39.6688         90.5239         -39.6688         90.5238       -0.0438507         137.869
0.673                      -3.88         148.863         -39.5974         89.1199         -39.5974         89.1199        -0.044446         137.768
0.674                    -3.8793           147.2         -39.5232         87.7164         -39.5232         87.7164       -0.0450546         137.667
0.675                    -3.8828         145.511         -39.4462         86.3121         -39.4462         86.3122        -0.045677         137.565
0.676                   -3.89048         143.795         -39.3666         84.9062         -39.3666         84.9062       -0.0463134         137.463
0.677                   -3.90234         142.051         -39.2842         83.4976         -39.2842         83.4976       -0.0469641          137.36
0.678                   -3.91838          140.28         -39.1993         82.0854         -39.1992         82.0854       -0.0476294         137.256
0.679                   -3.93864         138.479         -39.1117         80.6685         -39.1117         80.6685       -0.0483097         137.153
0.68                    -3.96313         136.647         -39.0216          79.246         -39.0216          79.246       -0.0490053         137.048
0.681                   -3.99191         134.785          -38.929         77.8169          -38.929          77.817       -0.0497165         136.943
0.682                   -4.02504          132.89          -38.834         76.3804          -38.834         76.3804       -0.0504437         136.837
0.683                   -4.06257         130.961         -38.7366         74.9354         -38.7366         74.9354       -0.0511872         136.731
0.684                   -4.10459         128.998          -38.637         73.4811          -38.637         73.4811       -0.0519473         136.624
0.685                   -4.15118         126.999         -38.5352         72.0165         -38.5352         72.0166       -0.0527244         136.517
0.686                   -4.20244         124.962         -38.4314         70.5408         -38.4314         70.5409       -0.0535189         136.408
0.687                   -4.25848         122.886         -38.3255         69.0532         -38.3255         69.0532       -0.0543311           136.3
0.688                   -4.31941         120.769         -38.2178         67.5527         -38.2178         67.5527       -0.0551614          136.19
0.689                   -4.38537         118.611         -38.1083         66.0385         -38.1083         66.0386       -0.0560103          136.08
0.69                    -4.45648         116.408         -37.9971         64.5099         -37.9971           64.51        -0.056878         135.969
0.691                    -4.5329          114.16         -37.8845         62.9661         -37.8845         62.9662        -0.057765         135.858
0.692                   -4.61475         111.865         -37.7705         61.4065         -37.7705         61.4065       -0.0586718         135.746
0.693                   -4.70221         109.521         -37.6553         59.8302         -37.6553         59.8303       -0.0595987         135.633
0.694                   -4.79544         107.125         -37.5391         58.2368         -37.5391         58.2369       -0.0605461          135.52
0.695                   -4.89459         104.676          -37.422         56.6257          -37.422         56.6258       -0.0615146         135.405
0.696                   -4.99983         102.171         -37.3042         54.9963         -37.3042         54.9964       -0.0625046          135.29