! TOUCHSTONE file generated by CST MICROWAVE STUDIO
! Date and time: Sat Nov 14 20:43:02 2020
! Project name: Scenario_1_Planar_Body_Tissue_Out_of_Line_v2.cst
! Parameters = {dy1=-242.2; L_HA=400; Ltissue=700; MT=2.54; Rad_Dielectric=30; Rad_Lower=7.3; Rad_Upper=30; Wtissue=700; a_HA=580; a_WG=246; b_HA=500; b_WG=121; c_HA=0; c_WG=187; d_feed=85; dx1=173; h_feed=15; h_lower=18; h_upper=40; hfat=3; hgap=25; hmuscle=50; hskin=1.5}
! Header version: 2018
! Port assignment regex: !\s*Touchstone port\s*([0-9]+)\s*=\s*(CST MWS port|CST DS port)\s*([0-9]+|Zmin|Zmax)\s*\(\"(.*)\"\)(\s*mode\s*([0-9]+))?.*
! Touchstone port assignment:
! Touchstone port 1 = CST MWS port 1 ("")
! Touchstone port 2 = CST MWS port 2 ("")
# GHz S DB R 50
0.5                   -0.0561843        -121.763         -62.8932         125.495          -62.893         125.502      -0.00688995         151.146
0.501                  -0.052589        -122.267          -62.748         124.615         -62.7478         124.621      -0.00692283         151.081
0.502                 -0.0492826        -122.775         -62.5994         123.733         -62.5992         123.739      -0.00695766         151.015
0.503                 -0.0462761        -123.287         -62.4474          122.85         -62.4472         122.855      -0.00699445         150.949
0.504                 -0.0435811        -123.803         -62.2919         121.965         -62.2916          121.97       -0.0070332         150.883
0.505                 -0.0412099        -124.323         -62.1328         121.079         -62.1326         121.083      -0.00707389         150.817
0.506                 -0.0391752        -124.847         -61.9702         120.192           -61.97         120.195      -0.00711653         150.751
0.507                 -0.0374907        -125.375         -61.8041         119.303         -61.8038         119.306      -0.00716111         150.685
0.508                 -0.0361707        -125.908         -61.6343         118.413         -61.6339         118.416      -0.00720763         150.619
0.509                 -0.0352305        -126.445         -61.4608         117.523         -61.4604         117.525      -0.00725609         150.553
0.51                  -0.0346859        -126.987         -61.2836         116.631         -61.2833         116.633      -0.00730648         150.487
0.511                 -0.0345541        -127.533         -61.1028         115.739         -61.1024         115.741       -0.0073588         150.421
0.512                  -0.034853        -128.083         -60.9181         114.846         -60.9177         114.847      -0.00741305         150.354
0.513                 -0.0356016        -128.639         -60.7297         113.953         -60.7292         113.953      -0.00746923         150.288
0.514                 -0.0368201        -129.199         -60.5374         113.058         -60.5369         113.058      -0.00752734         150.221
0.515                   -0.03853        -129.764         -60.3413         112.163         -60.3408         112.162      -0.00758737         150.155
0.516                  -0.040754        -130.334         -60.1412         111.267         -60.1407         111.266      -0.00764931         150.088
0.517                 -0.0435162         -130.91         -59.9372          110.37         -59.9366         110.368      -0.00771318         150.021
0.518                 -0.0468423         -131.49         -59.7292         109.472         -59.7286          109.47      -0.00777896         149.954
0.519                 -0.0507595        -132.076         -59.5172         108.572         -59.5166         108.571      -0.00784666         149.887
0.52                  -0.0552968        -132.666         -59.3011         107.672         -59.3004          107.67      -0.00791627          149.82
0.521                 -0.0604852        -133.263         -59.0808          106.77         -59.0802         106.768      -0.00798779         149.753
0.522                 -0.0663574        -133.865         -58.8564         105.867         -58.8558         105.864      -0.00806122         149.686
0.523                 -0.0729484        -134.472         -58.6278         104.961         -58.6271         104.958      -0.00813656         149.619
0.524                 -0.0802957        -135.085         -58.3949         104.054         -58.3942          104.05      -0.00821382         149.551
0.525                 -0.0884389        -135.704         -58.1576         103.143         -58.1569         103.139      -0.00829297         149.484
0.526                 -0.0974206        -136.329          -57.916          102.23         -57.9153         102.226      -0.00837404         149.416
0.527                  -0.107286         -136.96         -57.6699         101.314         -57.6692         101.309      -0.00845701         149.349
0.528                  -0.118083        -137.597         -57.4193         100.394         -57.4185         100.389      -0.00854189         149.281
0.529                  -0.129865         -138.24         -57.1641         99.4699         -57.1633         99.4647      -0.00862867         149.213
0.53                   -0.142685        -138.889         -56.9042          98.541         -56.9035         98.5355      -0.00871736         149.146
0.531                  -0.156603        -139.545         -56.6396         97.6067         -56.6388          97.601      -0.00880795         149.078
0.532                  -0.171681        -140.206         -56.3702         96.6664         -56.3694         96.6604      -0.00890045          149.01
0.533                  -0.187988        -140.875         -56.0959         95.7194         -56.0951         95.7132      -0.00899485         148.941
0.534                  -0.205595        -141.549         -55.8165         94.7649         -55.8157         94.7585      -0.00909116         148.873
0.535                  -0.224579         -142.23         -55.5321         93.8021         -55.5313         93.7954      -0.00918938         148.805
0.536                  -0.245023        -142.917         -55.2424         92.8299         -55.2416         92.8231      -0.00928951         148.736
0.537                  -0.267013        -143.611         -54.9475         91.8474         -54.9467         91.8404      -0.00939154         148.668
0.538                  -0.290644        -144.311         -54.6471         90.8535         -54.6463         90.8463      -0.00949548         148.599
0.539                  -0.316017        -145.018         -54.3412          89.847         -54.3404         89.8396      -0.00960134         148.531
0.54                   -0.343237         -145.73         -54.0297         88.8264         -54.0289         88.8189      -0.00970911         148.462
0.541                  -0.372419        -146.449         -53.7123         87.7904         -53.7115         87.7828      -0.00981879         148.393
0.542                  -0.403683        -147.173          -53.389         86.7373         -53.3883         86.7296      -0.00993039         148.324
0.543                   -0.43716        -147.903         -53.0597         85.6655         -53.0589         85.6578       -0.0100439         148.255
0.544                  -0.472986        -148.639         -52.7241         84.5731         -52.7234         84.5652       -0.0101593         148.185
0.545                  -0.511306        -149.379         -52.3821         83.4578         -52.3814           83.45       -0.0102767         148.116
0.546                  -0.552273        -150.123         -52.0337         82.3176          -52.033         82.3097        -0.010396         148.047
0.547                  -0.596049        -150.872         -51.6785         81.1498         -51.6778         81.1419       -0.0105172         147.977
0.548                  -0.642805        -151.623         -51.3165         79.9518         -51.3159         79.9439       -0.0106404         147.908
0.549                  -0.692718        -152.378         -50.9475         78.7204         -50.9469         78.7126       -0.0107655         147.838
0.55                   -0.745973        -153.133         -50.5713         77.4525         -50.5707         77.4448       -0.0108925         147.768
0.551                  -0.802762        -153.889         -50.1878         76.1442         -50.1872         76.1367       -0.0110215         147.698
0.552                  -0.863282        -154.644         -49.7967         74.7917         -49.7963         74.7843       -0.0111524         147.628
0.553                  -0.927733        -155.397         -49.3981         73.3904         -49.3977         73.3832       -0.0112853         147.558
0.554                  -0.996318        -156.146         -48.9918         71.9353         -48.9914         71.9284       -0.0114201         147.488
0.555                   -1.06924        -156.889         -48.5776         70.4212         -48.5772         70.4146       -0.0115569         147.417
0.556                   -1.14668        -157.624         -48.1555         68.8419         -48.1552         68.8356       -0.0116957         147.347
0.557                   -1.22884        -158.349         -47.7255         67.1908         -47.7252         67.1849       -0.0118364         147.276
0.558                   -1.31587         -159.06         -47.2876         65.4605         -47.2874         65.4551       -0.0119792         147.205
0.559                   -1.40793        -159.755         -46.8421          63.643         -46.8419         63.6381       -0.0121239         147.134
0.56                    -1.50513        -160.429          -46.389         61.7294         -46.3889         61.7251       -0.0122706         147.063
0.561                   -1.60753        -161.079         -45.9288         59.7098         -45.9287         59.7063       -0.0124193         146.992
0.562                   -1.71514        -161.701          -45.462         57.5738         -45.4619          57.571         -0.01257         146.921
0.563                   -1.82791         -162.29         -44.9893         55.3098         -44.9893         55.3078       -0.0127227          146.85
0.564                    -1.9457         -162.84         -44.5117         52.9054         -44.5117         52.9044       -0.0128774         146.778
0.565                   -2.06825        -163.346         -44.0306         50.3477         -44.0306         50.3478       -0.0130342         146.706
0.566                    -2.1952        -163.803         -43.5476         47.6231         -43.5476         47.6244        -0.013193         146.635
0.567                   -2.32604        -164.204         -43.0649         44.7181         -43.0649         44.7206       -0.0133538         146.563
0.568                   -2.46007        -164.544         -42.5852         41.6195         -42.5851         41.6233       -0.0135167         146.491
0.569                   -2.59645        -164.816         -42.1117         38.3152         -42.1115         38.3205       -0.0136816         146.419
0.57                    -2.73411        -165.016         -41.6483         34.7955         -41.6481         34.8022       -0.0138485         146.346
0.571                   -2.87179        -165.137         -41.1996         31.0539         -41.1992         31.0621       -0.0140176         146.274
0.572                   -3.00804        -165.177         -40.7707          27.089         -40.7702         27.0986       -0.0141886         146.201
0.573                   -3.14118        -165.133         -40.3673          22.906         -40.3666         22.9169       -0.0143618         146.129
0.574                   -3.26941        -165.003         -39.9953         18.5179         -39.9943         18.5301        -0.014537         146.056
0.575                   -3.39077         -164.79         -39.6605         13.9472         -39.6592         13.9603       -0.0147144         145.983
0.576                   -3.50326        -164.495         -39.3682          9.2257         -39.3666         9.23949       -0.0148939          145.91
0.577                    -3.6049        -164.127         -39.1227         4.39444         -39.1208         4.40858       -0.0150755         145.837
0.578                   -3.69383        -163.692         -38.9271       -0.498512         -38.9248       -0.484422       -0.0152593         145.763
0.579                   -3.76836        -163.203         -38.7825        -5.40084         -38.7799        -5.38718       -0.0154453          145.69
0.58                    -3.82715        -162.672         -38.6883        -10.2596         -38.6854        -10.2467       -0.0156336         145.616
0.581                   -3.86922        -162.115         -38.6421        -15.0249         -38.6389        -15.0132       -0.0158242         145.542
0.582                   -3.89402        -161.547           -38.64        -19.6534         -38.6364        -19.6431        -0.016017         145.468
0.583                   -3.90152        -160.986         -38.6768          -24.11          -38.673        -24.1013       -0.0162121         145.394
0.584                   -3.89211        -160.448         -38.7469        -28.3693          -38.743        -28.3624       -0.0164095          145.32
0.585                   -3.86664        -159.947         -38.8444        -32.4153         -38.8403        -32.4101       -0.0166092         145.245
0.586                   -3.82633        -159.497         -38.9635        -36.2405         -38.9593        -36.2371       -0.0168112         145.171
0.587                   -3.77269        -159.109         -39.0988        -39.8445         -39.0947        -39.8428       -0.0170155         145.096
0.588                    -3.7074        -158.792         -39.2457        -43.2322         -39.2416        -43.2321       -0.0172221         145.021
0.589                   -3.63228        -158.552            -39.4        -46.4125         -39.3959         -46.414       -0.0174311         144.946
0.59                    -3.54915        -158.394         -39.5583        -49.3971         -39.5542        -49.3999       -0.0176425          144.87
0.591                   -3.45978         -158.32         -39.7176        -52.1988         -39.7136         -52.203       -0.0178562         144.795
0.592                   -3.36584        -158.329         -39.8757        -54.8313         -39.8718        -54.8367       -0.0180723         144.719
0.593                   -3.26886         -158.42         -40.0307        -57.3083         -40.0269        -57.3147       -0.0182908         144.644
0.594                   -3.17021        -158.592         -40.1813        -59.6431         -40.1775        -59.6505       -0.0185117         144.568
0.595                   -3.07107        -158.839         -40.3263        -61.8483         -40.3226        -61.8566       -0.0187351         144.491
0.596                   -2.97247        -159.159         -40.4649         -63.936         -40.4613        -63.9449        -0.018961         144.415
0.597                   -2.87526        -159.546         -40.5965         -65.917         -40.5931        -65.9266       -0.0191894         144.339
0.598                   -2.78013        -159.997         -40.7208        -67.8016         -40.7175        -67.8118       -0.0194203         144.262
0.599                   -2.68764        -160.506         -40.8375         -69.599         -40.8343        -69.6097       -0.0196538         144.185
0.6                     -2.59823        -161.069         -40.9464        -71.3179         -40.9433         -71.329       -0.0198899         144.108
0.601                   -2.51223        -161.681         -41.0474        -72.9659         -41.0444        -72.9774       -0.0201285         144.031
0.602                   -2.42988         -162.34         -41.1406        -74.5501         -41.1378        -74.5619       -0.0203699         143.953
0.603                   -2.35134         -163.04         -41.2261        -76.0768         -41.2234        -76.0888       -0.0206138         143.876
0.604                   -2.27671        -163.778         -41.3039        -77.5519         -41.3013        -77.5641       -0.0208605         143.798
0.605                   -2.20604        -164.551         -41.3741        -78.9806         -41.3716         -78.993         -0.02111          143.72
0.606                   -2.13934        -165.356          -41.437        -80.3678         -41.4346        -80.3803       -0.0213621         143.642
0.607                   -2.07659        -166.191         -41.4927        -81.7178         -41.4904        -81.7304       -0.0216171         143.563
0.608                   -2.01774        -167.052         -41.5413        -83.0347         -41.5391        -83.0473       -0.0218749         143.485
0.609                   -1.96272        -167.938          -41.583        -84.3222          -41.581        -84.3347       -0.0221356         143.406
0.61                    -1.91146        -168.848         -41.6181        -85.5835         -41.6161         -85.596       -0.0223992         143.327
0.611                   -1.86385        -169.778         -41.6467        -86.8218         -41.6448        -86.8342       -0.0226657         143.247
0.612                   -1.81982        -170.729          -41.669        -88.0399         -41.6672        -88.0522       -0.0229351         143.168
0.613                   -1.77925        -171.698         -41.6852        -89.2405         -41.6835        -89.2527       -0.0232076         143.088
0.614                   -1.74205        -172.684         -41.6955         -90.426         -41.6939        -90.4381       -0.0234831         143.008
0.615                   -1.70812        -173.688            -41.7        -91.5987         -41.6986        -91.6105       -0.0237617         142.928
0.616                   -1.67736        -174.707          -41.699        -92.7606         -41.6977        -92.7723       -0.0240435         142.848
0.617                   -1.64969        -175.741         -41.6926        -93.9138         -41.6914        -93.9253       -0.0243284         142.767
0.618                   -1.62501         -176.79         -41.6811        -95.0601         -41.6799        -95.0713       -0.0246165         142.686
0.619                   -1.60324        -177.852         -41.6645        -96.2012         -41.6633        -96.2121       -0.0249079         142.605
0.62                    -1.58429        -178.929          -41.643        -97.3388          -41.642        -97.3494       -0.0252026         142.524
0.621                   -1.56811         179.981         -41.6168        -98.4743         -41.6159        -98.4846       -0.0255006         142.442
0.622                   -1.55461         178.878         -41.5861        -99.6093         -41.5852        -99.6192       -0.0258021          142.36
0.623                   -1.54374         177.762          -41.551        -100.745         -41.5502        -100.755        -0.026107         142.278
0.624                   -1.53544         176.632         -41.5117        -101.883          -41.511        -101.892       -0.0264154         142.196
0.625                   -1.52966          175.49         -41.4684        -103.024         -41.4677        -103.033       -0.0267274         142.114
0.626                   -1.52636         174.335         -41.4211         -104.17         -41.4205        -104.178       -0.0270429         142.031
0.627                    -1.5255         173.167         -41.3701        -105.321         -41.3695        -105.329       -0.0273622         141.948
0.628                   -1.52705         171.985         -41.3154        -106.479          -41.315        -106.487       -0.0276851         141.864
0.629                   -1.53099          170.79         -41.2574        -107.645         -41.2569        -107.652       -0.0280119         141.781
0.63                    -1.53728         169.582          -41.196         -108.82         -41.1956        -108.827       -0.0283425         141.697
0.631                   -1.54592          168.36         -41.1315        -110.004         -41.1311         -110.01        -0.028677         141.613
0.632                    -1.5569         167.124         -41.0639        -111.199         -41.0637        -111.205       -0.0290154         141.528
0.633                   -1.57021         165.873         -40.9936        -112.405         -40.9934        -112.411        -0.029358         141.443
0.634                   -1.58586         164.608         -40.9205        -113.624         -40.9203        -113.629       -0.0297046         141.358
0.635                   -1.60386         163.328         -40.8449        -114.856         -40.8448         -114.86       -0.0300554         141.273
0.636                   -1.62421         162.033          -40.767        -116.101         -40.7669        -116.105       -0.0304104         141.187
0.637                   -1.64693         160.722         -40.6868        -117.361         -40.6867        -117.364       -0.0307698         141.102
0.638                   -1.67206         159.395         -40.6046        -118.636         -40.6045        -118.638       -0.0311336         141.015
0.639                   -1.69961         158.051         -40.5205        -119.927         -40.5204        -119.929       -0.0315018         140.929
0.64                    -1.72962         156.691         -40.4346        -121.234         -40.4346        -121.235       -0.0318746         140.842
0.641                   -1.76214         155.313         -40.3472        -122.558         -40.3472        -122.559       -0.0322521         140.755
0.642                    -1.7972         153.917         -40.2584        -123.899         -40.2584        -123.899       -0.0326342         140.667
0.643                   -1.83486         152.503         -40.1684        -125.258         -40.1684        -125.258       -0.0330212          140.58
0.644                   -1.87518         151.069         -40.0774        -126.635         -40.0774        -126.634       -0.0334131         140.491
0.645                   -1.91822         149.616         -39.9855        -128.031         -39.9855         -128.03       -0.0338101         140.403
0.646                   -1.96404         148.143         -39.8929        -129.445         -39.8929        -129.444       -0.0342121         140.314
0.647                   -2.01272         146.649         -39.7999        -130.878         -39.7998        -130.876       -0.0346193         140.225
0.648                   -2.06434         145.134         -39.7065        -132.331         -39.7064        -132.328       -0.0350318         140.136
0.649                   -2.11899         143.597          -39.613        -133.803         -39.6129          -133.8       -0.0354497         140.046
0.65                    -2.17676         142.037         -39.5196        -135.293         -39.5195         -135.29       -0.0358732         139.956
0.651                   -2.23775         140.453         -39.4264        -136.803         -39.4263          -136.8       -0.0363022         139.865
0.652                   -2.30205         138.845         -39.3337        -138.332         -39.3335        -138.328       -0.0367371         139.774
0.653                    -2.3698         137.213         -39.2416         -139.88         -39.2413        -139.876       -0.0371778         139.683
0.654                    -2.4411         135.555         -39.1502        -141.446           -39.15        -141.442       -0.0376245         139.591
0.655                   -2.51607          133.87         -39.0599        -143.031         -39.0596        -143.026       -0.0380773         139.499
0.656                   -2.59486         132.158         -38.9708        -144.632         -38.9704        -144.627       -0.0385364         139.406
0.657                   -2.67759         130.418          -38.883        -146.252         -38.8826        -146.246       -0.0390019         139.313
0.658                   -2.76443         128.649         -38.7967        -147.887         -38.7962        -147.882        -0.039474          139.22
0.659                   -2.85551          126.85          -38.712        -149.538         -38.7115        -149.533       -0.0399527         139.126
0.66                      -2.951         125.019         -38.6292        -151.205         -38.6287        -151.199       -0.0404384         139.032
0.661                   -3.05106         123.157         -38.5484        -152.885         -38.5478        -152.879        -0.040931         138.938
0.662                   -3.15588         121.262         -38.4696        -154.579          -38.469        -154.573       -0.0414309         138.843
0.663                   -3.26563         119.332         -38.3931        -156.285         -38.3924        -156.279       -0.0419381         138.747
0.664                    -3.3805         117.367         -38.3189        -158.002         -38.3181        -157.996       -0.0424529         138.652
0.665                   -3.50068         115.366         -38.2471        -159.729         -38.2463        -159.723       -0.0429755         138.555
0.666                   -3.62638         113.326         -38.1778        -161.464          -38.177        -161.459        -0.043506         138.458
0.667                    -3.7578         111.247         -38.1111        -163.208         -38.1102        -163.203       -0.0440447         138.361
0.668                   -3.89515         109.128          -38.047        -164.958         -38.0461        -164.953       -0.0445918         138.263
0.669                   -4.03865         106.966         -37.9855        -166.713         -37.9846        -166.708       -0.0451476         138.165
0.67                    -4.18851          104.76         -37.9267        -168.472         -37.9258        -168.467       -0.0457123         138.067
0.671                   -4.34497         102.508         -37.8706        -170.233         -37.8696        -170.229       -0.0462861         137.967
0.672                   -4.50824         100.209         -37.8171        -171.996         -37.8161        -171.992       -0.0468694         137.868
0.673                   -4.67854         97.8605         -37.7663        -173.758         -37.7653        -173.755       -0.0474624         137.767
0.674                   -4.85609         95.4599          -37.718         -175.52          -37.717        -175.517       -0.0480656         137.667
0.675                   -5.04112         93.0051         -37.6721        -177.279         -37.6711        -177.276       -0.0486791         137.565
0.676                   -5.23382         90.4935         -37.6287        -179.035         -37.6277        -179.032       -0.0493034         137.464
0.677                    -5.4344         87.9224         -37.5876         179.214         -37.5866         179.216       -0.0499389         137.361
0.678                   -5.64302         85.2885         -37.5486         177.469         -37.5477          177.47       -0.0505859         137.258
0.679                   -5.85986         82.5888         -37.5117          175.73         -37.5108         175.731       -0.0512449         137.155
0.68                    -6.08504         79.8193         -37.4767         173.998         -37.4758         173.999       -0.0519165         137.051
0.681                   -6.31867         76.9763         -37.4434         172.274         -37.4426         172.274       -0.0526009         136.946
0.682                   -6.56079         74.0553         -37.4117         170.558          -37.411         170.559        -0.053299         136.841
0.683                   -6.81141         71.0515         -37.3814         168.852         -37.3807         168.852       -0.0540111         136.735
0.684                   -7.07045         67.9598         -37.3523         167.155         -37.3517         167.155       -0.0547379         136.628
0.685                   -7.33778         64.7744         -37.3242         165.467         -37.3237         165.467         -0.05548         136.521
0.686                   -7.61313         61.4891          -37.297          163.79         -37.2966         163.789       -0.0562381         136.413
0.687                   -7.89613         58.0972         -37.2704         162.121         -37.2701         162.121        -0.057013         136.305
0.688                   -8.18626         54.5917         -37.2443         160.462          -37.244         160.461       -0.0578054         136.196
0.689                   -8.48282         50.9648         -37.2184         158.811         -37.2182         158.811        -0.058616         136.086
0.69                    -8.78491         47.2086         -37.1926         157.169         -37.1925         157.169       -0.0594456         135.975
0.691                   -9.09135         43.3149         -37.1667         155.534         -37.1667         155.534        -0.060295         135.864
0.692                   -9.40071         39.2754         -37.1405         153.905         -37.1406         153.906       -0.0611651         135.752
0.693                   -9.71123          35.082          -37.114         152.281         -37.1141         152.283       -0.0620565          135.64
0.694                   -10.0208         30.7273         -37.0869         150.662         -37.0872         150.663       -0.0629701         135.526
0.695                   -10.3268         26.2049         -37.0593         149.044         -37.0596         149.047       -0.0639064         135.412
0.696                   -10.6265         21.5101          -37.031         147.427         -37.0314          147.43        -0.064866         135.297