! TOUCHSTONE file generated by CST MICROWAVE STUDIO
! Date and time: Fri Dec 11 14:16:58 2020
! Project name: Scenario_1_Planar_Body_Tissue_Out_of_Line_v2.cst
! Parameters = {dy1=242.2; L_HA=400; Ltissue=700; MT=2.54; Rad_Dielectric=30; Rad_Lower=7.3; Rad_Upper=30; Wtissue=700; a_HA=580; a_WG=246; b_HA=500; b_WG=121; c_HA=0; c_WG=187; d_feed=85; dx1=520; h_feed=15; h_lower=18; h_upper=40; hfat=3; hgap=25; hmuscle=50; hskin=1.5}
! Header version: 2018
! Port assignment regex: !\s*Touchstone port\s*([0-9]+)\s*=\s*(CST MWS port|CST DS port)\s*([0-9]+|Zmin|Zmax)\s*\(\"(.*)\"\)(\s*mode\s*([0-9]+))?.*
! Touchstone port assignment:
! Touchstone port 1 = CST MWS port 1 ("")
! Touchstone port 2 = CST MWS port 2 ("")
# GHz S DB R 50
0.5                   -0.0917858        -121.956         -63.7873        -70.6665         -63.7866        -70.6624      -0.00734943          151.16
0.501                 -0.0951851        -122.411         -63.5893        -71.7865         -63.5887        -71.7825      -0.00741424         151.094
0.502                 -0.0987992        -122.869         -63.3873         -72.911         -63.3868        -72.9073      -0.00747991         151.029
0.503                  -0.102645        -123.331          -63.181        -74.0412         -63.1806        -74.0377      -0.00754646         150.964
0.504                  -0.106739        -123.797         -62.9704        -75.1783         -62.9701        -75.1748       -0.0076139         150.898
0.505                  -0.111103        -124.267         -62.7554        -76.3233         -62.7552        -76.3201      -0.00768227         150.833
0.506                  -0.115756         -124.74         -62.5359        -77.4778         -62.5357        -77.4746      -0.00775157         150.767
0.507                  -0.120722        -125.218         -62.3118        -78.6431         -62.3116          -78.64      -0.00782185         150.701
0.508                  -0.126028        -125.699         -62.0829        -79.8207         -62.0827        -79.8178      -0.00789312         150.635
0.509                  -0.131699        -126.185         -61.8492        -81.0122         -61.8491        -81.0094       -0.0079654          150.57
0.51                   -0.137767        -126.675         -61.6107        -82.2194         -61.6106        -82.2167      -0.00803874         150.504
0.511                  -0.144263        -127.169         -61.3672         -83.444         -61.3671        -83.4415      -0.00811316         150.438
0.512                  -0.151225        -127.668         -61.1187        -84.6881         -61.1186        -84.6857       -0.0081887         150.372
0.513                  -0.158691        -128.172         -60.8651        -85.9536          -60.865        -85.9513      -0.00826539         150.305
0.514                  -0.166703        -128.679         -60.6065        -87.2426         -60.6064        -87.2405      -0.00834327         150.239
0.515                  -0.175308        -129.192         -60.3427        -88.5575         -60.3426        -88.5556      -0.00842239         150.173
0.516                  -0.184556        -129.709         -60.0739        -89.9006         -60.0738        -89.8988      -0.00850278         150.106
0.517                  -0.194501         -130.23            -59.8        -91.2743         -59.7999        -91.2727      -0.00858451          150.04
0.518                  -0.205204        -130.757          -59.521        -92.6813         -59.5209        -92.6799      -0.00866761         149.973
0.519                  -0.216727        -131.288         -59.2371        -94.1243          -59.237         -94.123      -0.00875216         149.906
0.52                   -0.229139        -131.823         -58.9483        -95.6061         -58.9481         -95.605      -0.00883819          149.84
0.521                  -0.242516        -132.362         -58.6547        -97.1296         -58.6546        -97.1287       -0.0089258         149.773
0.522                  -0.256935        -132.906         -58.3566        -98.6979         -58.3564        -98.6971      -0.00901502         149.706
0.523                  -0.272483        -133.454          -58.054        -100.314         -58.0538        -100.313      -0.00910596         149.639
0.524                  -0.289247        -134.006         -57.7473        -101.981         -57.7471        -101.981      -0.00919867         149.572
0.525                  -0.307322        -134.561         -57.4366        -103.703         -57.4364        -103.703      -0.00929324         149.504
0.526                  -0.326806        -135.119         -57.1224        -105.483         -57.1222        -105.482      -0.00938976         149.437
0.527                  -0.347799         -135.68          -56.805        -107.323         -56.8048        -107.323      -0.00948831          149.37
0.528                  -0.370402        -136.242         -56.4848        -109.228         -56.4846        -109.228      -0.00958899         149.302
0.529                  -0.394716        -136.805         -56.1624        -111.201         -56.1622        -111.201      -0.00969188         149.235
0.53                   -0.420837        -137.368         -55.8383        -113.246         -55.8381        -113.246      -0.00979708         149.167
0.531                  -0.448856         -137.93         -55.5131        -115.364         -55.5129        -115.365      -0.00990467         149.099
0.532                  -0.478849        -138.489         -55.1877         -117.56         -55.1875        -117.561       -0.0100147         149.031
0.533                  -0.510877        -139.045         -54.8627        -119.837         -54.8625        -119.837       -0.0101273         148.963
0.534                   -0.54498        -139.595         -54.5391        -122.195         -54.5389        -122.196       -0.0102426         148.895
0.535                  -0.581162        -140.138         -54.2179        -124.639         -54.2177        -124.639       -0.0103604         148.827
0.536                  -0.619394        -140.672            -53.9        -127.168         -53.8999        -127.168       -0.0104809         148.759
0.537                  -0.659595        -141.194         -53.5867        -129.783         -53.5866        -129.783       -0.0106041          148.69
0.538                  -0.701629        -141.702         -53.2791        -132.485          -53.279        -132.485       -0.0107298         148.622
0.539                  -0.745298        -142.195         -52.9785        -135.273         -52.9784        -135.273        -0.010858         148.553
0.54                   -0.790327        -142.669         -52.6861        -138.145          -52.686        -138.144       -0.0109885         148.485
0.541                  -0.836371        -143.123         -52.4033        -141.097         -52.4032        -141.096       -0.0111211         148.416
0.542                  -0.883002        -143.555         -52.1313        -144.125         -52.1312        -144.124       -0.0112555         148.347
0.543                  -0.929724        -143.963         -51.8714        -147.224         -51.8712        -147.223       -0.0113914         148.278
0.544                  -0.975975        -144.347         -51.6247        -150.388         -51.6245        -150.386       -0.0115283          148.21
0.545                   -1.02114        -144.707         -51.3924        -153.608         -51.3921        -153.606       -0.0116659          148.14
0.546                    -1.0646        -145.042         -51.1752        -156.876         -51.1749        -156.873       -0.0118036         148.071
0.547                    -1.1057        -145.355         -50.9739        -160.181         -50.9736        -160.179        -0.011941         148.002
0.548                   -1.14386        -145.648         -50.7891        -163.514         -50.7888        -163.511       -0.0120776         147.933
0.549                   -1.17852        -145.924         -50.6211        -166.863         -50.6207         -166.86       -0.0122129         147.863
0.55                    -1.20924        -146.186         -50.4699        -170.217         -50.4694        -170.214       -0.0123466         147.794
0.551                   -1.23568        -146.438         -50.3353        -173.566         -50.3348        -173.563       -0.0124783         147.724
0.552                   -1.25763        -146.686          -50.217        -176.899         -50.2165        -176.895       -0.0126078         147.655
0.553                   -1.27503        -146.934         -50.1144         179.795         -50.1139         179.799        -0.012735         147.585
0.554                   -1.28793        -147.186         -50.0267         176.525         -50.0261         176.528         -0.01286         147.515
0.555                   -1.29652        -147.446          -49.953         173.298         -49.9524         173.301       -0.0129828         147.445
0.556                   -1.30107         -147.72         -49.8922         170.121         -49.8915         170.124       -0.0131035         147.375
0.557                   -1.30195        -148.009         -49.8432         167.001         -49.8425         167.004       -0.0132226         147.304
0.558                   -1.29959        -148.317         -49.8048         163.942         -49.8041         163.944       -0.0133402         147.234
0.559                   -1.29443        -148.645         -49.7759         160.947         -49.7751         160.949       -0.0134568         147.163
0.56                    -1.28693        -148.995         -49.7552         158.019         -49.7544         158.021       -0.0135726         147.093
0.561                   -1.27754        -149.369         -49.7415          155.16         -49.7407         155.162       -0.0136882         147.022
0.562                   -1.26672        -149.766         -49.7338         152.369          -49.733         152.371       -0.0138038         146.951
0.563                   -1.25484        -150.186         -49.7311         149.647         -49.7303         149.649       -0.0139198          146.88
0.564                    -1.2423         -150.63         -49.7323         146.993         -49.7315         146.994       -0.0140364         146.809
0.565                    -1.2294        -151.096         -49.7365         144.405         -49.7357         144.406       -0.0141541         146.737
0.566                   -1.21645        -151.584          -49.743         141.882         -49.7422         141.883        -0.014273         146.666
0.567                   -1.20367        -152.094          -49.751         139.421         -49.7502         139.422       -0.0143933         146.594
0.568                    -1.1913        -152.623         -49.7598          137.02         -49.7591         137.021       -0.0145153         146.522
0.569                   -1.17949        -153.172         -49.7689         134.676         -49.7681         134.677       -0.0146391          146.45
0.57                     -1.1684        -153.739         -49.7777         132.387         -49.7769         132.388       -0.0147648         146.378
0.571                   -1.15816        -154.324         -49.7857          130.15          -49.785         130.151       -0.0148926         146.306
0.572                   -1.14885        -154.926         -49.7926         127.963         -49.7919         127.963       -0.0150225         146.233
0.573                   -1.14055        -155.543          -49.798         125.821         -49.7974         125.821       -0.0151546         146.161
0.574                   -1.13334        -156.175         -49.8016         123.724          -49.801         123.723        -0.015289         146.088
0.575                   -1.12726        -156.822         -49.8032         121.667         -49.8026         121.667       -0.0154258         146.015
0.576                   -1.12235        -157.483         -49.8025         119.649          -49.802         119.649       -0.0155649         145.942
0.577                   -1.11864        -158.157         -49.7994         117.667         -49.7989         117.667       -0.0157065         145.869
0.578                   -1.11615        -158.843         -49.7937         115.718         -49.7932         115.718       -0.0158505         145.796
0.579                   -1.11492        -159.542         -49.7853         113.801         -49.7849         113.801       -0.0159969         145.722
0.58                    -1.11496        -160.254         -49.7741         111.914         -49.7737         111.913       -0.0161459         145.648
0.581                   -1.11628        -160.976         -49.7599         110.053         -49.7596         110.053       -0.0162974         145.575
0.582                    -1.1189        -161.711         -49.7428         108.217         -49.7425         108.217       -0.0164514         145.501
0.583                   -1.12283        -162.456         -49.7227         106.405         -49.7224         106.405       -0.0166079         145.427
0.584                   -1.12809        -163.213         -49.6996         104.614         -49.6993         104.614        -0.016767         145.352
0.585                    -1.1347         -163.98         -49.6734         102.843         -49.6732         102.842       -0.0169287         145.278
0.586                   -1.14267        -164.758         -49.6441         101.089         -49.6439         101.089       -0.0170929         145.203
0.587                   -1.15203        -165.547         -49.6117         99.3527         -49.6115         99.3526       -0.0172597         145.128
0.588                   -1.16279        -166.347         -49.5763          97.631         -49.5761          97.631       -0.0174292         145.054
0.589                   -1.17498        -167.157         -49.5377         95.9229         -49.5376         95.9229       -0.0176012         144.978
0.59                    -1.18863        -167.978         -49.4961          94.227          -49.496         94.2271        -0.017776         144.903
0.591                   -1.20378        -168.809         -49.4515         92.5421         -49.4514         92.5423       -0.0179533         144.828
0.592                   -1.22045        -169.651         -49.4039         90.8669         -49.4038         90.8672       -0.0181333         144.752
0.593                   -1.23868        -170.504         -49.3533         89.2003         -49.3532         89.2006        -0.018316         144.676
0.594                   -1.25852        -171.368         -49.2997         87.5411         -49.2997         87.5415       -0.0185015           144.6
0.595                   -1.28002        -172.243         -49.2432         85.8881         -49.2432         85.8886       -0.0186896         144.524
0.596                   -1.30322        -173.128         -49.1838         84.2404         -49.1839          84.241       -0.0188805         144.448
0.597                   -1.32819        -174.025         -49.1216          82.597         -49.1217         82.5976       -0.0190742         144.371
0.598                   -1.35498        -174.933         -49.0566         80.9568         -49.0567         80.9575       -0.0192706         144.295
0.599                   -1.38366        -175.852         -48.9889         79.3189          -48.989         79.3197       -0.0194699         144.218
0.6                     -1.41429        -176.782         -48.9184         77.6823         -48.9185         77.6832        -0.019672         144.141
0.601                   -1.44697        -177.724         -48.8453         76.0463         -48.8454         76.0472        -0.019877         144.063
0.602                   -1.48176        -178.677         -48.7696         74.4098         -48.7697         74.4108       -0.0200849         143.986
0.603                   -1.51876        -179.642         -48.6914          72.772         -48.6915         72.7732       -0.0202956         143.908
0.604                   -1.55807         179.381         -48.6107         71.1322         -48.6108         71.1334       -0.0205094         143.831
0.605                   -1.59978         178.392         -48.5275         69.4894         -48.5276         69.4907       -0.0207261         143.752
0.606                   -1.64401         177.392         -48.4419          67.843          -48.442         67.8443       -0.0209458         143.674
0.607                   -1.69087          176.38         -48.3541          66.192         -48.3542         66.1934       -0.0211685         143.596
0.608                   -1.74048         175.355          -48.264         64.5358         -48.2641         64.5372       -0.0213943         143.517
0.609                   -1.79299         174.319         -48.1717         62.8735         -48.1718          62.875       -0.0216232         143.438
0.61                    -1.84852         173.271         -48.0774         61.2045         -48.0775          61.206       -0.0218553         143.359
0.611                   -1.90723         172.212          -47.981          59.528         -47.9811         59.5296       -0.0220905          143.28
0.612                   -1.96928          171.14         -47.8827         57.8433         -47.8828         57.8449       -0.0223289           143.2
0.613                   -2.03483         170.057         -47.7825         56.1497         -47.7826         56.1513       -0.0225705         143.121
0.614                   -2.10406         168.962         -47.6805         54.4465         -47.6806         54.4481       -0.0228154         143.041
0.615                   -2.17717         167.857         -47.5769         52.7331          -47.577         52.7347       -0.0230636         142.961
0.616                   -2.25435          166.74         -47.4717         51.0088         -47.4718         51.0104       -0.0233152          142.88
0.617                   -2.33581         165.613          -47.365         49.2729         -47.3651         49.2745       -0.0235701           142.8
0.618                   -2.42177         164.477          -47.257         47.5249          -47.257         47.5265       -0.0238285         142.719
0.619                   -2.51246          163.33         -47.1477         45.7642         -47.1477         45.7658       -0.0240903         142.638
0.62                    -2.60813         162.175         -47.0373         43.9903         -47.0373         43.9918       -0.0243557         142.556
0.621                   -2.70903         161.012         -46.9258         42.2025         -46.9259          42.204       -0.0246246         142.475
0.622                   -2.81544         159.842         -46.8135         40.4004         -46.8135         40.4018       -0.0248971         142.393
0.623                   -2.92761         158.666         -46.7004         38.5836         -46.7004         38.5849       -0.0251732         142.311
0.624                   -3.04586         157.485         -46.5867         36.7515         -46.5867         36.7528        -0.025453         142.229
0.625                   -3.17047         156.301         -46.4726         34.9039         -46.4726         34.9052       -0.0257366         142.146
0.626                   -3.30175         155.115         -46.3582         33.0404         -46.3582         33.0416        -0.026024         142.063
0.627                   -3.44003         153.929         -46.2436         31.1607         -46.2436         31.1618       -0.0263152          141.98
0.628                   -3.58562         152.744          -46.129         29.2646          -46.129         29.2656       -0.0266102         141.897
0.629                   -3.73887         151.564         -46.0146         27.3519         -46.0146         27.3528       -0.0269093         141.813
0.63                     -3.9001         150.391         -45.9006         25.4226         -45.9006         25.4234       -0.0272123         141.729
0.631                   -4.06967         149.228         -45.7871         23.4765         -45.7871         23.4772       -0.0275194         141.645
0.632                   -4.24789         148.077         -45.6744         21.5138         -45.6743         21.5144       -0.0278307         141.561
0.633                   -4.43511         146.944         -45.5625         19.5346         -45.5625         19.5351       -0.0281461         141.476
0.634                   -4.63166          145.83         -45.4517         17.5392         -45.4517         17.5396       -0.0284658         141.391
0.635                   -4.83783         144.742         -45.3422         15.5277         -45.3422          15.528       -0.0287898         141.306
0.636                   -5.05391         143.684         -45.2342         13.5007         -45.2342         13.5009       -0.0291182          141.22
0.637                   -5.28018         142.662         -45.1278         11.4585         -45.1278         11.4586       -0.0294511         141.134
0.638                   -5.51683         141.681         -45.0232         9.40195         -45.0232         9.40195       -0.0297885         141.048
0.639                   -5.76404         140.749         -44.9207         7.33157         -44.9207         7.33147       -0.0301305         140.961
0.64                    -6.02192         139.872         -44.8203          5.2482         -44.8203         5.24802       -0.0304773         140.875
0.641                   -6.29049         139.059         -44.7223         3.15274         -44.7223         3.15247       -0.0308289         140.788
0.642                   -6.56966         138.319         -44.6267         1.04619         -44.6267         1.04584       -0.0311853           140.7
0.643                   -6.85924         137.661         -44.5339        -1.07038         -44.5339        -1.07081       -0.0315468         140.612
0.644                   -7.15885         137.095         -44.4438        -3.19579         -44.4438        -3.19628       -0.0319133         140.524
0.645                   -7.46797         136.632         -44.3566        -5.32878         -44.3566        -5.32933        -0.032285         140.436
0.646                    -7.7858         136.285         -44.2724        -7.46801         -44.2724        -7.46862        -0.032662         140.347
0.647                   -8.11131         136.065         -44.1913        -9.61209         -44.1913        -9.61275       -0.0330445         140.258
0.648                   -8.44313         135.985         -44.1134        -11.7596         -44.1134        -11.7603       -0.0334324         140.168
0.649                   -8.77951         136.057         -44.0387        -13.9089         -44.0388        -13.9096       -0.0338261         140.079
0.65                     -9.1183         136.295         -43.9673        -16.0586         -43.9673        -16.0594       -0.0342255         139.989
0.651                   -9.45684         136.709         -43.8992        -18.2071         -43.8992        -18.2079       -0.0346308         139.898
0.652                     -9.792         137.309         -43.8343        -20.3528         -43.8344        -20.3536       -0.0350422         139.807
0.653                   -10.1201         138.104         -43.7727        -22.4942         -43.7728        -22.4949       -0.0354598         139.716
0.654                   -10.4369         139.097         -43.7144        -24.6296         -43.7145        -24.6303       -0.0358837         139.624
0.655                   -10.7379         140.287         -43.6592        -26.7576         -43.6593        -26.7583       -0.0363142         139.532
0.656                   -11.0181         141.667         -43.6071        -28.8767         -43.6072        -28.8774       -0.0367513          139.44
0.657                   -11.2726         143.225         -43.5579        -30.9854          -43.558        -30.9861       -0.0371953         139.347
0.658                   -11.4966         144.938         -43.5116        -33.0824         -43.5118         -33.083       -0.0376464         139.254
0.659                   -11.6857          146.78         -43.4681        -35.1664         -43.4682         -35.167       -0.0381046          139.16
0.66                    -11.8366         148.714         -43.4272        -37.2362         -43.4273        -37.2367       -0.0385703         139.066
0.661                   -11.9471           150.7         -43.3887        -39.2906         -43.3888        -39.2911       -0.0390435         138.971
0.662                   -12.0162         152.696         -43.3524        -41.3286         -43.3526        -41.3291       -0.0395246         138.876
0.663                   -12.0446         154.658         -43.3183        -43.3494         -43.3184        -43.3498       -0.0400137         138.781
0.664                   -12.0341         156.546          -43.286         -45.352         -43.2862        -45.3523       -0.0405111         138.685
0.665                   -11.9879         158.324         -43.2555        -47.3357         -43.2556         -47.336        -0.041017         138.589
0.666                     -11.91         159.964         -43.2265           -49.3         -43.2266        -49.3002       -0.0415315         138.492
0.667                   -11.8047         161.443         -43.1987        -51.2443         -43.1989        -51.2445       -0.0420551         138.395
0.668                   -11.6769         162.747         -43.1721        -53.1682         -43.1722        -53.1683       -0.0425878         138.298
0.669                   -11.5312         163.868         -43.1464        -55.0714         -43.1465        -55.0715       -0.0431301         138.199
0.67                    -11.3719         164.804         -43.1214        -56.9538         -43.1215        -56.9539        -0.043682         138.101
0.671                    -11.203         165.558         -43.0968        -58.8151         -43.0969        -58.8152       -0.0442441         138.002
0.672                    -11.028         166.134         -43.0726        -60.6555         -43.0727        -60.6556       -0.0448164         137.902
0.673                   -10.8498         166.541         -43.0484         -62.475         -43.0485         -62.475       -0.0453993         137.802
0.674                   -10.6709         166.789         -43.0242        -64.2737         -43.0243        -64.2736       -0.0459932         137.701
0.675                   -10.4934         166.888         -42.9997        -66.0518         -42.9998        -66.0518       -0.0465982           137.6
0.676                   -10.3189         166.849         -42.9747        -67.8097         -42.9748        -67.8097       -0.0472148         137.499
0.677                   -10.1487         166.681         -42.9491        -69.5477         -42.9492        -69.5477       -0.0478433         137.396
0.678                   -9.98385         166.396         -42.9228        -71.2663         -42.9228        -71.2663        -0.048484         137.294
0.679                   -9.82509         166.003         -42.8954         -72.966         -42.8955        -72.9659       -0.0491373          137.19
0.68                      -9.673         165.509          -42.867        -74.6472          -42.867        -74.6471       -0.0498035         137.086
0.681                   -9.52797         164.925         -42.8373        -76.3105         -42.8373        -76.3105       -0.0504829         136.982
0.682                   -9.39028         164.256         -42.8062        -77.9567         -42.8063        -77.9566        -0.051176         136.877
0.683                   -9.26011          163.51         -42.7737        -79.5862         -42.7737        -79.5861       -0.0518832         136.771
0.684                   -9.13755         162.693         -42.7395        -81.1998         -42.7395        -81.1998       -0.0526048         136.665
0.685                   -9.02263          161.81         -42.7035        -82.7983         -42.7036        -82.7983       -0.0533412         136.558
0.686                   -8.91533         160.866         -42.6658        -84.3823         -42.6658        -84.3823       -0.0540929          136.45
0.687                   -8.81561         159.865          -42.626        -85.9526         -42.6261        -85.9526       -0.0548603         136.342
0.688                   -8.72339         158.812         -42.5843          -87.51         -42.5843          -87.51       -0.0556439         136.233
0.689                   -8.63858         157.708         -42.5404        -89.0553         -42.5404        -89.0553        -0.056444         136.124
0.69                    -8.56108         156.558         -42.4944        -90.5892         -42.4944        -90.5892       -0.0572612         136.013
0.691                    -8.4908         155.363         -42.4461        -92.1126         -42.4461        -92.1126       -0.0580958         135.903
0.692                   -8.42761         154.127         -42.3955        -93.6263         -42.3955        -93.6264       -0.0589485         135.791
0.693                   -8.37143          152.85         -42.3425        -95.1312         -42.3425        -95.1312       -0.0598197         135.679
0.694                   -8.32215         151.535         -42.2871         -96.628         -42.2871         -96.628       -0.0607099         135.566
0.695                    -8.2797         150.183         -42.2292        -98.1175         -42.2292        -98.1176       -0.0616196         135.452
0.696                   -8.24398         148.795         -42.1689        -99.6007         -42.1689        -99.6007       -0.0625495         135.338