! TOUCHSTONE file generated by CST MICROWAVE STUDIO
! Date and time: Mon Nov 30 08:09:42 2020
! Project name: Scenario_1_Planar_Body_Tissue_Out_of_Line.cst
! Parameters = {dy1=242.2; L_HA=400; Ltissue=700; MT=2.54; Rad_Dielectric=30; Rad_Lower=7.3; Rad_Upper=30; Wtissue=700; a_HA=580; a_WG=246; b_HA=500; b_WG=121; c_HA=0; c_WG=187; d_feed=85; dx1=866; h_feed=15; h_lower=18; h_upper=40; hfat=3; hgap=25; hmuscle=50; hskin=1.5}
! Header version: 2018
! Port assignment regex: !\s*Touchstone port\s*([0-9]+)\s*=\s*(CST MWS port|CST DS port)\s*([0-9]+|Zmin|Zmax)\s*\(\"(.*)\"\)(\s*mode\s*([0-9]+))?.*
! Touchstone port assignment:
! Touchstone port 1 = CST MWS port 1 ("")
! Touchstone port 2 = CST MWS port 2 ("")
# GHz S DB R 50
0.5                    -0.118634        -122.089         -64.6878         90.4049         -64.6856         90.4141      -0.00750749         151.154
0.501                  -0.128012        -122.491         -64.6642         88.3932         -64.6607         88.3999      -0.00758382         151.089
0.502                  -0.137343        -122.894         -64.6371         86.3507         -64.6323          86.355      -0.00766035         151.024
0.503                  -0.146627          -123.3         -64.6064         84.2775         -64.6003         84.2796      -0.00773709         150.959
0.504                  -0.155865        -123.707         -64.5718          82.174         -64.5645          82.174      -0.00781407         150.893
0.505                  -0.165059        -124.116         -64.5334         80.0406         -64.5247         80.0387      -0.00789131         150.828
0.506                   -0.17421        -124.527         -64.4908         77.8777         -64.4809          77.874      -0.00796882         150.762
0.507                  -0.183318         -124.94         -64.4441         75.6859         -64.4328         75.6805      -0.00804663         150.697
0.508                  -0.192386        -125.355          -64.393         73.4657         -64.3804         73.4589      -0.00812474         150.631
0.509                  -0.201413        -125.771         -64.3375          71.218         -64.3236         71.2098      -0.00820319         150.565
0.51                   -0.210403         -126.19         -64.2774         68.9433         -64.2622          68.934      -0.00828198           150.5
0.511                  -0.219357        -126.611         -64.2127         66.6426         -64.1962         66.6323      -0.00836114         150.434
0.512                  -0.228275        -127.034         -64.1432         64.3167         -64.1255         64.3055      -0.00844068         150.368
0.513                  -0.237161        -127.459         -64.0689         61.9666           -64.05         61.9547      -0.00852063         150.302
0.514                  -0.246016        -127.886         -63.9898         59.5933         -63.9697         59.5809        -0.008601         150.235
0.515                  -0.254842        -128.316         -63.9058         57.1979         -63.8845          57.185      -0.00868181         150.169
0.516                  -0.263641        -128.748         -63.8169         54.7814         -63.7945         54.7682      -0.00876308         150.103
0.517                  -0.272415        -129.182         -63.7231          52.345         -63.6995         52.3316      -0.00884483         150.036
0.518                  -0.281168        -129.619         -63.6243         49.8898         -63.5997         49.8763      -0.00892708          149.97
0.519                  -0.289902        -130.059         -63.5207          47.417          -63.495         47.4035      -0.00900985         149.903
0.52                   -0.298619        -130.501         -63.4122         44.9279         -63.3856         44.9144      -0.00909315         149.837
0.521                  -0.307322        -130.945         -63.2989         42.4236         -63.2714         42.4101      -0.00917701          149.77
0.522                  -0.316015        -131.392          -63.181         39.9053         -63.1526         39.8919      -0.00926144         149.703
0.523                  -0.324702        -131.842         -63.0585         37.3741         -63.0293         37.3609      -0.00934647         149.636
0.524                  -0.333385        -132.295         -62.9315         34.8313         -62.9015         34.8182      -0.00943211         149.569
0.525                  -0.342068        -132.751         -62.8002         32.2779         -62.7695         32.2649      -0.00951838         149.502
0.526                  -0.350755        -133.209         -62.6646         29.7151         -62.6334         29.7021      -0.00960531         149.435
0.527                  -0.359451        -133.671         -62.5251         27.1439         -62.4933         27.1309      -0.00969291         149.367
0.528                   -0.36816        -134.135         -62.3818         24.5653         -62.3495         24.5523      -0.00978121           149.3
0.529                  -0.376887        -134.603         -62.2348         21.9804          -62.202         21.9672      -0.00987021         149.233
0.53                   -0.385636        -135.074         -62.0843           19.39         -62.0513         19.3765      -0.00995995         149.165
0.531                  -0.394414        -135.549         -61.9307          16.795         -61.8973         16.7812       -0.0100504         149.097
0.532                  -0.403225        -136.026         -61.7741         14.1962         -61.7405          14.182       -0.0101417          149.03
0.533                  -0.412076        -136.508         -61.6147         11.5945          -61.581         11.5798       -0.0102338         148.962
0.534                  -0.420973        -136.992         -61.4528         8.99064          -61.419         8.97518       -0.0103267         148.894
0.535                  -0.429923        -137.481         -61.2886         6.38521         -61.2548         6.36894       -0.0104204         148.826
0.536                  -0.438932        -137.973         -61.1224         3.77893         -61.0887         3.76173       -0.0105149         148.757
0.537                  -0.448009        -138.469         -60.9544          1.1724         -60.9209         1.15415       -0.0106104         148.689
0.538                  -0.457161        -138.968          -60.785        -1.43377         -60.7516        -1.45318       -0.0107067         148.621
0.539                  -0.466397        -139.472         -60.6142        -4.03903         -60.5812         -4.0597        -0.010804         148.552
0.54                   -0.475726         -139.98         -60.4425        -6.64283         -60.4098        -6.66486       -0.0109022         148.484
0.541                  -0.485157        -140.492         -60.2699        -9.24466         -60.2377        -9.26814       -0.0110014         148.415
0.542                    -0.4947        -141.008         -60.0969         -11.844         -60.0651         -11.869       -0.0111016         148.346
0.543                  -0.504366        -141.529         -59.9236        -14.4404         -59.8924        -14.4669       -0.0112028         148.277
0.544                  -0.514167        -142.054         -59.7502        -17.0333         -59.7196        -17.0614        -0.011305         148.208
0.545                  -0.524114        -142.583          -59.577        -19.6222         -59.5471        -19.6519       -0.0114083         148.139
0.546                  -0.534221        -143.117         -59.4042        -22.2066          -59.375         -22.238       -0.0115126          148.07
0.547                    -0.5445        -143.656          -59.232         -24.786         -59.2036         -24.819       -0.0116181             148
0.548                  -0.554967          -144.2         -59.0606          -27.36         -59.0331        -27.3944       -0.0117246         147.931
0.549                  -0.565637        -144.749         -58.8902        -29.9279         -58.8635        -29.9638       -0.0118324         147.861
0.55                   -0.576526        -145.303          -58.721        -32.4892         -58.6952        -32.5265       -0.0119413         147.792
0.551                  -0.587652        -145.863          -58.553        -35.0434         -58.5282        -35.0819       -0.0120514         147.722
0.552                  -0.599033        -146.428         -58.3865        -37.5899         -58.3628        -37.6295       -0.0121627         147.652
0.553                  -0.610689        -146.998         -58.2216        -40.1281         -58.1989        -40.1686       -0.0122753         147.582
0.554                  -0.622642        -147.574         -58.0584        -42.6574         -58.0368        -42.6987       -0.0123891         147.512
0.555                  -0.634912        -148.155          -57.897        -45.1771         -57.8765         -45.219       -0.0125042         147.441
0.556                  -0.647525        -148.743         -57.7375        -47.6868         -57.7182         -47.729       -0.0126207         147.371
0.557                  -0.660506        -149.336         -57.5799        -50.1857         -57.5618        -50.2281       -0.0127385         147.301
0.558                  -0.673882        -149.936         -57.4244        -52.6733         -57.4074        -52.7155       -0.0128577          147.23
0.559                  -0.687682        -150.542         -57.2709        -55.1489         -57.2551        -55.1907       -0.0129783         147.159
0.56                   -0.701937        -151.154         -57.1195         -57.612         -57.1048         -57.653       -0.0131003         147.088
0.561                   -0.71668        -151.773         -56.9701        -60.0619         -56.9566         -60.102       -0.0132238         147.017
0.562                  -0.731945        -152.398         -56.8227        -62.4981         -56.8104        -62.5369       -0.0133487         146.946
0.563                  -0.747772        -153.031         -56.6774          -64.92         -56.6662        -64.9573       -0.0134752         146.875
0.564                  -0.764199         -153.67         -56.5341        -67.3272          -56.524        -67.3626       -0.0136032         146.803
0.565                   -0.78127        -154.317         -56.3926        -69.7192         -56.3837        -69.7525       -0.0137328         146.732
0.566                   -0.79903         -154.97          -56.253        -72.0955         -56.2451        -72.1264       -0.0138639          146.66
0.567                  -0.817529        -155.632         -56.1151        -74.4559         -56.1083        -74.4841       -0.0139967         146.588
0.568                  -0.836819          -156.3         -55.9788        -76.7999          -55.973        -76.8252       -0.0141312         146.516
0.569                  -0.856956        -156.977          -55.844        -79.1274         -55.8392        -79.1496       -0.0142673         146.444
0.57                   -0.877999        -157.661         -55.7106        -81.4381         -55.7067        -81.4569       -0.0144052         146.372
0.571                  -0.900013        -158.352         -55.5785         -83.732         -55.5754        -83.7473       -0.0145448           146.3
0.572                  -0.923064        -159.052         -55.4474         -86.009         -55.4452        -86.0205       -0.0146861         146.227
0.573                  -0.947227         -159.76         -55.3173        -88.2692         -55.3158        -88.2768       -0.0148293         146.155
0.574                  -0.972579        -160.476         -55.1879        -90.5128         -55.1871        -90.5163       -0.0149743         146.082
0.575                  -0.999202          -161.2         -55.0591        -92.7399          -55.059        -92.7393       -0.0151212         146.009
0.576                   -1.02719        -161.932         -54.9307        -94.9508         -54.9312         -94.946       -0.0152699         145.936
0.577                   -1.05662        -162.673         -54.8026        -97.1461         -54.8035         -97.137       -0.0154206         145.863
0.578                   -1.08761        -163.421         -54.6745        -99.3262         -54.6759        -99.3128       -0.0155733         145.789
0.579                   -1.12026        -164.178         -54.5462        -101.492          -54.548        -101.474        -0.015728         145.716
0.58                    -1.15468        -164.942         -54.4177        -103.643         -54.4198        -103.621       -0.0158846         145.642
0.581                     -1.191        -165.714         -54.2886        -105.782         -54.2909        -105.756       -0.0160434         145.568
0.582                   -1.22933        -166.494         -54.1588        -107.909         -54.1613        -107.879       -0.0162042         145.494
0.583                   -1.26981        -167.281         -54.0281        -110.024         -54.0308         -109.99       -0.0163672          145.42
0.584                   -1.31257        -168.075         -53.8964         -112.13         -53.8991        -112.092       -0.0165324         145.346
0.585                   -1.35778        -168.876         -53.7635        -114.227         -53.7662        -114.186       -0.0166997         145.271
0.586                   -1.40557        -169.682         -53.6292        -116.318         -53.6318        -116.273       -0.0168692         145.197
0.587                    -1.4561        -170.494         -53.4934        -118.402         -53.4958        -118.354       -0.0170411         145.122
0.588                   -1.50954        -171.311         -53.3559        -120.482         -53.3582        -120.431       -0.0172152         145.047
0.589                   -1.56606        -172.131         -53.2166         -122.56         -53.2187        -122.507       -0.0173916         144.972
0.59                    -1.62581        -172.954         -53.0755        -124.638         -53.0774        -124.582       -0.0175704         144.896
0.591                   -1.68897        -173.778         -52.9325        -126.717          -52.934        -126.659       -0.0177516         144.821
0.592                   -1.75571        -174.602         -52.7874        -128.799         -52.7886         -128.74       -0.0179353         144.745
0.593                   -1.82619        -175.425         -52.6403        -130.887         -52.6411        -130.826       -0.0181214         144.669
0.594                   -1.90056        -176.245         -52.4912        -132.982         -52.4916        -132.921       -0.0183099         144.593
0.595                   -1.97897        -177.059           -52.34        -135.087           -52.34        -135.026       -0.0185011         144.517
0.596                   -2.06152        -177.866         -52.1868        -137.205         -52.1865        -137.143       -0.0186947         144.441
0.597                   -2.14833        -178.662         -52.0318        -139.337          -52.031        -139.276        -0.018891         144.364
0.598                   -2.23946        -179.446          -51.875        -141.485         -51.8738        -141.425       -0.0190899         144.288
0.599                   -2.33494         179.786         -51.7166        -143.652          -51.715        -143.593       -0.0192914         144.211
0.6                     -2.43474         179.038         -51.5569        -145.841         -51.5548        -145.783       -0.0194956         144.134
0.601                   -2.53878         178.313         -51.3959        -148.052         -51.3935        -147.997       -0.0197025         144.056
0.602                   -2.64692         177.614         -51.2342        -150.289         -51.2314        -150.236       -0.0199121         143.979
0.603                   -2.75893         176.946         -51.0719        -152.552         -51.0688        -152.502       -0.0201245         143.901
0.604                   -2.87449         176.312         -50.9094        -154.845          -50.906        -154.797       -0.0203397         143.823
0.605                   -2.99317         175.717         -50.7472        -157.167         -50.7436        -157.122       -0.0205577         143.745
0.606                   -3.11445         175.165         -50.5856         -159.52         -50.5818        -159.478       -0.0207785         143.667
0.607                   -3.23766         174.658         -50.4252        -161.904         -50.4213        -161.866       -0.0210022         143.588
0.608                   -3.36205         174.202         -50.2665        -164.321         -50.2625        -164.286       -0.0212287          143.51
0.609                   -3.48672         173.797         -50.1099         -166.77         -50.1059        -166.738       -0.0214582         143.431
0.61                    -3.61067         173.448          -49.956        -169.249          -49.952        -169.221       -0.0216905         143.352
0.611                   -3.73278         173.153         -49.8053        -171.759         -49.8013        -171.735       -0.0219258         143.272
0.612                   -3.85188         172.914         -49.6583        -174.298         -49.6545        -174.277       -0.0221641         143.193
0.613                   -3.96672          172.73         -49.5155        -176.864         -49.5118        -176.845       -0.0224053         143.113
0.614                   -4.07607         172.598         -49.3773        -179.454         -49.3738        -179.438       -0.0226495         143.033
0.615                   -4.17869         172.513         -49.2442         177.935         -49.2409         177.947       -0.0228967         142.953
0.616                   -4.27345         172.471         -49.1164         175.305         -49.1134         175.315        -0.023147         142.873
0.617                    -4.3593         172.464         -48.9943          172.66         -48.9916         172.668       -0.0234003         142.792
0.618                   -4.43539         172.485         -48.8781         170.005         -48.8756         170.011       -0.0236567         142.711
0.619                   -4.50107         172.524         -48.7679         167.342         -48.7656         167.347       -0.0239162          142.63
0.62                    -4.55589         172.572         -48.6636         164.676         -48.6617          164.68       -0.0241789         142.549
0.621                   -4.59969         172.618         -48.5654         162.012         -48.5638         162.014       -0.0244447         142.467
0.622                   -4.63254         172.653         -48.4731         159.353         -48.4717         159.354       -0.0247137         142.385
0.623                   -4.65476         172.667         -48.3864         156.703         -48.3852         156.704        -0.024986         142.303
0.624                    -4.6669         172.651         -48.3051         154.065         -48.3042         154.065       -0.0252615         142.221
0.625                   -4.66968         172.597         -48.2289         151.443         -48.2282         151.443       -0.0255405         142.138
0.626                   -4.66399         172.497         -48.1573         148.839         -48.1568          148.84       -0.0258228         142.055
0.627                   -4.65081         172.345           -48.09         146.257         -48.0897         146.257       -0.0261086         141.972
0.628                    -4.6312         172.138         -48.0265         143.698         -48.0263         143.698        -0.026398         141.889
0.629                   -4.60625         171.871         -47.9663         141.164         -47.9662         141.164        -0.026691         141.805
0.63                    -4.57705         171.541         -47.9089         138.656         -47.9089         138.656       -0.0269878         141.721
0.631                   -4.54466         171.149         -47.8538         136.175         -47.8539         136.175       -0.0272885         141.637
0.632                   -4.51008         170.693         -47.8005         133.721         -47.8007         133.722       -0.0275931         141.552
0.633                   -4.47425         170.173         -47.7486         131.295         -47.7488         131.296       -0.0279017         141.467
0.634                   -4.43804          169.59         -47.6975         128.895         -47.6978         128.896       -0.0282147         141.382
0.635                   -4.40224         168.945         -47.6469         126.522         -47.6472         126.524       -0.0285319         141.297
0.636                   -4.36756         168.241         -47.5963         124.175         -47.5966         124.176       -0.0288537         141.211
0.637                   -4.33464         167.478         -47.5454         121.852         -47.5457         121.854       -0.0291802         141.125
0.638                   -4.30405         166.659         -47.4938         119.553         -47.4941         119.554       -0.0295115         141.039
0.639                   -4.27627         165.787         -47.4412         117.275         -47.4415         117.277       -0.0298477         140.952
0.64                    -4.25176         164.862         -47.3873         115.018         -47.3876          115.02       -0.0301892         140.865
0.641                    -4.2309         163.886         -47.3319         112.779         -47.3322         112.781        -0.030536         140.778
0.642                   -4.21406         162.863         -47.2748         110.558         -47.2751         110.559       -0.0308883         140.691
0.643                   -4.20153         161.794         -47.2157         108.351          -47.216         108.352       -0.0312463         140.603
0.644                   -4.19362         160.679         -47.1547         106.157         -47.1549         106.158       -0.0316102         140.515
0.645                   -4.19057         159.522         -47.0914         103.975         -47.0917         103.976       -0.0319802         140.426
0.646                   -4.19265         158.323         -47.0259         101.803         -47.0261         101.804       -0.0323565         140.337
0.647                   -4.20008         157.083          -46.958         99.6381         -46.9582          99.639       -0.0327392         140.248
0.648                   -4.21309         155.805         -46.8878         97.4795          -46.888         97.4802       -0.0331285         140.158
0.649                   -4.23193         154.488         -46.8152         95.3251         -46.8154         95.3257       -0.0335246         140.068
0.65                     -4.2568         153.135         -46.7402         93.1732         -46.7404         93.1738       -0.0339277         139.978
0.651                   -4.28796         151.745         -46.6628         91.0222          -46.663         91.0227        -0.034338         139.887
0.652                   -4.32566         150.319         -46.5832         88.8705         -46.5834          88.871       -0.0347556         139.796
0.653                   -4.37014         148.859         -46.5013         86.7166         -46.5015         86.7169       -0.0351807         139.705
0.654                   -4.42168         147.365         -46.4173         84.5589         -46.4175         84.5592       -0.0356136         139.613
0.655                   -4.48058         145.837         -46.3312         82.3961         -46.3314         82.3964       -0.0360543         139.521
0.656                   -4.54716         144.276         -46.2432         80.2269         -46.2434         80.2271        -0.036503         139.428
0.657                   -4.62173         142.683         -46.1534         78.0499         -46.1535         78.0502       -0.0369599         139.335
0.658                   -4.70467         141.058         -46.0619         75.8642          -46.062         75.8644       -0.0374253         139.242
0.659                   -4.79637         139.402         -45.9689         73.6686         -45.9691         73.6688       -0.0378992         139.148
0.66                    -4.89724         137.714         -45.8746          71.462         -45.8747         71.4622       -0.0383818         139.053
0.661                   -5.00774         135.997         -45.7792         69.2438         -45.7792          69.244       -0.0388733         138.959
0.662                   -5.12834          134.25         -45.6827          67.013         -45.6828         67.0133        -0.039374         138.864
0.663                   -5.25957         132.474         -45.5856         64.7691         -45.5856         64.7694       -0.0398838         138.768
0.664                     -5.402         130.671         -45.4878         62.5115         -45.4879         62.5118       -0.0404032         138.672
0.665                   -5.55624          128.84         -45.3897         60.2398         -45.3898         60.2401       -0.0409322         138.576
0.666                   -5.72293         126.984         -45.2916         57.9536         -45.2916         57.9539        -0.041471         138.479
0.667                   -5.90278         125.103         -45.1935         55.6529         -45.1935         55.6532       -0.0420198         138.382
0.668                   -6.09655           123.2         -45.0958         53.3375         -45.0958         53.3378       -0.0425788         138.284
0.669                   -6.30507         121.274         -44.9986         51.0076         -44.9986         51.0079       -0.0431483         138.186
0.67                    -6.52922          119.33         -44.9023         48.6633         -44.9023         48.6636       -0.0437283         138.087
0.671                   -6.76996         117.367          -44.807         46.3052         -44.8069         46.3054       -0.0443192         137.988
0.672                   -7.02835         115.391          -44.713         43.9336         -44.7129         43.9338       -0.0449212         137.888
0.673                   -7.30552         113.402         -44.6204         41.5492         -44.6203         41.5494       -0.0455345         137.788
0.674                   -7.60272         111.405         -44.5295         39.1528         -44.5294          39.153       -0.0461592         137.687
0.675                   -7.92132         109.402         -44.4406         36.7454         -44.4405         36.7456       -0.0467957         137.586
0.676                   -8.26284           107.4         -44.3537         34.3279         -44.3535         34.3281       -0.0474442         137.484
0.677                   -8.62896         105.402          -44.269         31.9016         -44.2689         31.9018        -0.048105         137.382
0.678                   -9.02157         103.414         -44.1868         29.4678         -44.1866         29.4679       -0.0487783         137.279
0.679                   -9.44277         101.444         -44.1071         27.0277          -44.107         27.0278       -0.0494643         137.176
0.68                    -9.89499         99.4992         -44.0301         24.5829         -44.0299          24.583       -0.0501634         137.072
0.681                    -10.381         97.5892         -43.9558          22.135         -43.9557         22.1351       -0.0508759         136.967
0.682                   -10.9039         95.7258         -43.8844         19.6855         -43.8843         19.6856       -0.0516019         136.862
0.683                   -11.4675         93.9231         -43.8158         17.2362         -43.8157         17.2362        -0.052342         136.756
0.684                   -12.0761         92.1986         -43.7502         14.7886         -43.7501         14.7886       -0.0530962          136.65
0.685                    -12.735         90.5748         -43.6875         12.3445         -43.6874         12.3445       -0.0538651         136.543
0.686                   -13.4504         89.0806         -43.6278          9.9055         -43.6277         9.90551       -0.0546489         136.436
0.687                   -14.2299         87.7542         -43.5708         7.47337         -43.5707         7.47339       -0.0554479         136.328
0.688                   -15.0829         86.6477         -43.5167         5.04968         -43.5166         5.04973       -0.0562625         136.219
0.689                   -16.0211         85.8338         -43.4652         2.63602         -43.4652         2.63609       -0.0570932         136.109
0.69                    -17.0587         85.4178         -43.4164        0.233873         -43.4163        0.233982       -0.0579402         135.999
0.691                   -18.2134         85.5569           -43.37        -2.15534         -43.3699        -2.15519       -0.0588039         135.888
0.692                   -19.5063          86.495         -43.3258        -4.53031         -43.3258         -4.5301       -0.0596849         135.777
0.693                   -20.9595         88.6257         -43.2839         -6.8898         -43.2838        -6.88954       -0.0605834         135.665
0.694                   -22.5868         92.6013         -43.2439        -9.23272         -43.2438        -9.23239       -0.0614999         135.552
0.695                    -24.361         99.4975         -43.2056        -11.5581         -43.2056        -11.5577       -0.0624349         135.438
0.696                   -26.1207         110.865         -43.1689         -13.865         -43.1689        -13.8646       -0.0633889         135.324