! TOUCHSTONE file generated by CST MICROWAVE STUDIO
! Date and time: Mon Nov 30 09:12:53 2020
! Project name: Scenario_1_Planar_Body_Tissue_Out_of_Line_v2.cst
! Parameters = {dy1=259.5; L_HA=400; Ltissue=700; MT=2.54; Rad_Dielectric=30; Rad_Lower=7.3; Rad_Upper=30; Wtissue=700; a_HA=580; a_WG=246; b_HA=500; b_WG=121; c_HA=0; c_WG=187; d_feed=85; dx1=346; h_feed=15; h_lower=18; h_upper=40; hfat=3; hgap=25; hmuscle=50; hskin=1.5}
! Header version: 2018
! Port assignment regex: !\s*Touchstone port\s*([0-9]+)\s*=\s*(CST MWS port|CST DS port)\s*([0-9]+|Zmin|Zmax)\s*\(\"(.*)\"\)(\s*mode\s*([0-9]+))?.*
! Touchstone port assignment:
! Touchstone port 1 = CST MWS port 1 ("")
! Touchstone port 2 = CST MWS port 2 ("")
# GHz S DB R 50
0.5                    -0.242089        -121.785         -57.7885         5.49219         -57.7887         5.49304      -0.00821576         151.151
0.501                  -0.246625        -122.167         -57.6729         2.98129         -57.6731         2.98259      -0.00825939         151.086
0.502                  -0.251077        -122.551         -57.5617        0.478961         -57.5619        0.480663      -0.00830385         151.021
0.503                  -0.255448        -122.938         -57.4549        -2.01301         -57.4551        -2.01094      -0.00834917         150.955
0.504                  -0.259743        -123.328         -57.3525        -4.49285         -57.3527        -4.49045      -0.00839536          150.89
0.505                  -0.263964        -123.721         -57.2545        -6.95884         -57.2547        -6.95615      -0.00844246         150.825
0.506                  -0.268115        -124.117         -57.1609         -9.4093         -57.1611        -9.40635      -0.00849049         150.759
0.507                  -0.272199        -124.516         -57.0716        -11.8426         -57.0718        -11.8394      -0.00853946         150.694
0.508                  -0.276221        -124.918         -56.9866        -14.2571         -56.9867        -14.2538      -0.00858941         150.628
0.509                  -0.280184        -125.324         -56.9056        -16.6515         -56.9057         -16.648      -0.00864035         150.562
0.51                   -0.284092        -125.732         -56.8286        -19.0243         -56.8287        -19.0207       -0.0086923         150.497
0.511                  -0.287949        -126.144         -56.7555        -21.3742         -56.7556        -21.3705      -0.00874528         150.431
0.512                  -0.291759        -126.558         -56.6861           -23.7         -56.6862        -23.6962      -0.00879932         150.365
0.513                  -0.295526        -126.977         -56.6202        -26.0007         -56.6203        -25.9969      -0.00885444         150.299
0.514                  -0.299256        -127.398         -56.5578        -28.2753         -56.5578        -28.2714      -0.00891065         150.232
0.515                  -0.302951        -127.823         -56.4984        -30.5229         -56.4985         -30.519      -0.00896798         150.166
0.516                  -0.306616        -128.251         -56.4421        -32.7428         -56.4422        -32.7389      -0.00902644           150.1
0.517                  -0.310258        -128.683         -56.3886        -34.9344         -56.3887        -34.9305      -0.00908606         150.033
0.518                  -0.313879        -129.119         -56.3377         -37.097         -56.3378        -37.0933      -0.00914685         149.967
0.519                  -0.317486        -129.558         -56.2892        -39.2305         -56.2892        -39.2268      -0.00920882           149.9
0.52                   -0.321083        -130.001         -56.2429        -41.3343         -56.2429        -41.3307      -0.00927201         149.834
0.521                  -0.324676        -130.447         -56.1986        -43.4083         -56.1986        -43.4048      -0.00933642         149.767
0.522                   -0.32827        -130.897         -56.1561        -45.4524         -56.1561         -45.449      -0.00940207           149.7
0.523                  -0.331872        -131.351         -56.1151        -47.4666         -56.1152        -47.4633      -0.00946898         149.633
0.524                  -0.335486        -131.809         -56.0756        -49.4509         -56.0756        -49.4477      -0.00953716         149.566
0.525                   -0.33912        -132.271         -56.0373        -51.4054         -56.0373        -51.4023      -0.00960664         149.499
0.526                   -0.34278        -132.737              -56        -53.3304              -56        -53.3274      -0.00967742         149.431
0.527                  -0.346471        -133.208         -55.9636         -55.226         -55.9636        -55.2232      -0.00974952         149.364
0.528                  -0.350202        -133.682         -55.9278        -57.0927         -55.9278          -57.09      -0.00982296         149.297
0.529                  -0.353979        -134.161         -55.8925        -58.9308         -55.8925        -58.9282      -0.00989775         149.229
0.53                   -0.357809        -134.644         -55.8576        -60.7407         -55.8576        -60.7383      -0.00997391         149.162
0.531                  -0.361702        -135.131         -55.8228        -62.5229         -55.8228        -62.5206       -0.0100514         149.094
0.532                  -0.365663        -135.623         -55.7881        -64.2779         -55.7881        -64.2758       -0.0101304         149.026
0.533                  -0.369703        -136.119         -55.7532        -66.0062         -55.7532        -66.0042       -0.0102107         148.958
0.534                  -0.373829         -136.62         -55.7181        -67.7084         -55.7181        -67.7065       -0.0102925          148.89
0.535                  -0.378052        -137.126         -55.6826        -69.3851         -55.6827        -69.3833       -0.0103756         148.822
0.536                  -0.382379        -137.636         -55.6466        -71.0368         -55.6466        -71.0351       -0.0104603         148.754
0.537                  -0.386823        -138.152           -55.61        -72.6642           -55.61        -72.6626       -0.0105464         148.685
0.538                  -0.391392        -138.672         -55.5726        -74.2679         -55.5726        -74.2664       -0.0106339         148.617
0.539                  -0.396098        -139.198         -55.5343        -75.8485         -55.5344        -75.8471       -0.0107229         148.548
0.54                   -0.400953        -139.728         -55.4951        -77.4067         -55.4952        -77.4055       -0.0108134          148.48
0.541                  -0.405968        -140.264         -55.4549        -78.9433         -55.4549        -78.9421       -0.0109055         148.411
0.542                  -0.411156        -140.806         -55.4134        -80.4587         -55.4135        -80.4576        -0.010999         148.342
0.543                  -0.416531        -141.353         -55.3707        -81.9537         -55.3708        -81.9527        -0.011094         148.273
0.544                  -0.422105        -141.905         -55.3267         -83.429         -55.3268        -83.4281       -0.0111906         148.204
0.545                  -0.427895        -142.463         -55.2813        -84.8852         -55.2813        -84.8843       -0.0112887         148.135
0.546                  -0.433915        -143.027         -55.2343         -86.323         -55.2344        -86.3222       -0.0113884         148.065
0.547                  -0.440181        -143.597         -55.1858        -87.7431         -55.1858        -87.7423       -0.0114896         147.996
0.548                  -0.446711        -144.173         -55.1356         -89.146         -55.1356        -89.1454       -0.0115923         147.927
0.549                  -0.453522        -144.755         -55.0837        -90.5326         -55.0837         -90.532       -0.0116967         147.857
0.55                   -0.460633        -145.343           -55.03        -91.9035           -55.03        -91.9029       -0.0118026         147.787
0.551                  -0.468064        -145.937         -54.9744        -93.2593         -54.9745        -93.2587       -0.0119101         147.717
0.552                  -0.475837        -146.539         -54.9169        -94.6007          -54.917        -94.6001       -0.0120193         147.647
0.553                  -0.483973        -147.147         -54.8575        -95.9283         -54.8576        -95.9278         -0.01213         147.577
0.554                  -0.492496        -147.761          -54.796        -97.2428         -54.7961        -97.2424       -0.0122423         147.507
0.555                  -0.501431        -148.383         -54.7324         -98.545         -54.7325        -98.5445       -0.0123562         147.437
0.556                  -0.510803        -149.012         -54.6666        -99.8354         -54.6667        -99.8349       -0.0124718         147.366
0.557                  -0.520642        -149.648         -54.5987        -101.115         -54.5987        -101.114        -0.012589         147.296
0.558                  -0.530976        -150.291         -54.5284        -102.384         -54.5285        -102.383       -0.0127078         147.225
0.559                  -0.541836        -150.942         -54.4559        -103.643         -54.4559        -103.642       -0.0128283         147.154
0.56                   -0.553256          -151.6          -54.381        -104.893          -54.381        -104.892       -0.0129504         147.083
0.561                   -0.56527        -152.267         -54.3036        -106.135         -54.3037        -106.134       -0.0130742         147.012
0.562                  -0.577916        -152.941         -54.2239        -107.369         -54.2239        -107.368       -0.0131996         146.941
0.563                  -0.591233        -153.624         -54.1416        -108.596         -54.1416        -108.595       -0.0133267          146.87
0.564                  -0.605264        -154.315         -54.0567        -109.816         -54.0567        -109.816       -0.0134554         146.798
0.565                  -0.620052        -155.015         -53.9693        -111.032         -53.9693        -111.031       -0.0135859         146.727
0.566                  -0.635645        -155.723         -53.8792        -112.242         -53.8792        -112.241        -0.013718         146.655
0.567                  -0.652095         -156.44         -53.7864        -113.448         -53.7864        -113.447       -0.0138518         146.583
0.568                  -0.669453        -157.166         -53.6909        -114.651         -53.6909         -114.65       -0.0139873         146.511
0.569                  -0.687778        -157.902         -53.5926        -115.851         -53.5926        -115.851       -0.0141246         146.439
0.57                    -0.70713        -158.646         -53.4916         -117.05         -53.4916        -117.049       -0.0142635         146.367
0.571                  -0.727575        -159.401         -53.3877        -118.247         -53.3877        -118.247       -0.0144041         146.294
0.572                  -0.749181        -160.165         -53.2809        -119.445         -53.2809        -119.444       -0.0145465         146.222
0.573                  -0.772021        -160.939         -53.1713        -120.643         -53.1713        -120.642       -0.0146906         146.149
0.574                  -0.796175        -161.723         -53.0587        -121.843         -53.0587        -121.842       -0.0148364         146.076
0.575                  -0.821725        -162.517         -52.9432        -123.045         -52.9431        -123.044       -0.0149839         146.003
0.576                  -0.848762        -163.322         -52.8247         -124.25         -52.8246        -124.249       -0.0151333          145.93
0.577                   -0.87738        -164.137         -52.7032         -125.46         -52.7032        -125.459       -0.0152843         145.857
0.578                  -0.907681        -164.962         -52.5788        -126.675         -52.5787        -126.674       -0.0154372         145.784
0.579                  -0.939772        -165.799         -52.4513        -127.897         -52.4512        -127.896       -0.0155918          145.71
0.58                   -0.973771        -166.646         -52.3208        -129.126         -52.3207        -129.125       -0.0157482         145.636
0.581                    -1.0098        -167.504         -52.1873        -130.363         -52.1871        -130.362       -0.0159064         145.563
0.582                   -1.04799        -168.373         -52.0507         -131.61         -52.0506        -131.609       -0.0160665         145.489
0.583                   -1.08848        -169.253         -51.9112        -132.867         -51.9111        -132.866       -0.0162283         145.414
0.584                   -1.13141        -170.144         -51.7688        -134.137         -51.7686        -134.135        -0.016392          145.34
0.585                   -1.17696        -171.046         -51.6233        -135.419         -51.6231        -135.418       -0.0165575         145.266
0.586                   -1.22528        -171.958          -51.475        -136.715         -51.4748        -136.714        -0.016725         145.191
0.587                   -1.27656        -172.881         -51.3238        -138.028         -51.3236        -138.026       -0.0168942         145.116
0.588                   -1.33098        -173.815         -51.1699        -139.356         -51.1696        -139.355       -0.0170654         145.041
0.589                   -1.38875        -174.758         -51.0132        -140.703         -51.0129        -140.702       -0.0172385         144.966
0.59                    -1.45007        -175.711         -50.8538         -142.07         -50.8535        -142.069       -0.0174136         144.891
0.591                   -1.51519        -176.673          -50.692        -143.457         -50.6917        -143.456       -0.0175906         144.815
0.592                   -1.58432        -177.643         -50.5277        -144.867         -50.5274        -144.866       -0.0177696          144.74
0.593                   -1.65773        -178.621         -50.3611          -146.3         -50.3608        -146.299       -0.0179505         144.664
0.594                   -1.73567        -179.606         -50.1924        -147.758          -50.192        -147.757       -0.0181336         144.588
0.595                   -1.81841         179.403         -50.0217        -149.242         -50.0213        -149.241       -0.0183186         144.512
0.596                   -1.90625         178.408         -49.8492        -150.754         -49.8488        -150.753       -0.0185058         144.435
0.597                   -1.99948          177.41         -49.6752        -152.295         -49.6748        -152.295        -0.018695         144.359
0.598                   -2.09839          176.41         -49.4998        -153.867         -49.4993        -153.866       -0.0188864         144.282
0.599                   -2.20331         175.411         -49.3233        -155.469         -49.3228        -155.469         -0.01908         144.205
0.6                     -2.31454         174.415         -49.1459        -157.105         -49.1455        -157.105       -0.0192757         144.128
0.601                    -2.4324         173.424         -48.9681        -158.774         -48.9676        -158.774       -0.0194738         144.051
0.602                   -2.55721         172.441         -48.7901        -160.478         -48.7896        -160.478       -0.0196741         143.973
0.603                   -2.68926         171.471         -48.6122        -162.218         -48.6117        -162.218       -0.0198767         143.895
0.604                   -2.82886         170.515         -48.4349        -163.994         -48.4344        -163.994       -0.0200817         143.818
0.605                   -2.97626         169.579         -48.2584        -165.806          -48.258        -165.806       -0.0202891         143.739
0.606                   -3.13171         168.667         -48.0833        -167.655         -48.0829        -167.656       -0.0204989         143.661
0.607                    -3.2954         167.785           -47.91        -169.541         -47.9095        -169.542       -0.0207113         143.583
0.608                   -3.46747         166.939         -47.7389        -171.464         -47.7384        -171.465       -0.0209262         143.504
0.609                   -3.64797         166.134         -47.5704        -173.423           -47.57        -173.424       -0.0211438         143.425
0.61                     -3.8369         165.378         -47.4051        -175.418         -47.4046        -175.419        -0.021364         143.346
0.611                   -4.03411         164.678         -47.2433        -177.447         -47.2429        -177.448       -0.0215869         143.266
0.612                   -4.23933         164.043         -47.0856        -179.508         -47.0852        -179.509       -0.0218127         143.187
0.613                   -4.45213          163.48         -46.9324         178.399          -46.932         178.398       -0.0220413         143.107
0.614                    -4.6719             163          -46.784         176.278         -46.7836         176.276       -0.0222728         143.027
0.615                   -4.89778         162.612          -46.641          174.13         -46.6406         174.128       -0.0225073         142.947
0.616                   -5.12869         162.324         -46.5037         171.958         -46.5033         171.956       -0.0227448         142.866
0.617                   -5.36325         162.146         -46.3723         169.766          -46.372         169.764       -0.0229856         142.786
0.618                   -5.59978         162.087         -46.2472         167.556          -46.247         167.554       -0.0232295         142.705
0.619                   -5.83629         162.154         -46.1287         165.333         -46.1284         165.331       -0.0234767         142.623
0.62                    -6.07043         162.354         -46.0168         163.099         -46.0166         163.097       -0.0237273         142.542
0.621                   -6.29956         162.691         -45.9117         160.859         -45.9115         160.857       -0.0239814          142.46
0.622                   -6.52077         163.165         -45.8135         158.617         -45.8133         158.615        -0.024239         142.378
0.623                   -6.73092         163.777         -45.7221         156.377         -45.7219         156.375       -0.0245003         142.296
0.624                   -6.92676         164.519         -45.6374         154.141         -45.6373         154.139       -0.0247653         142.214
0.625                   -7.10506         165.382         -45.5593         151.915         -45.5592         151.914       -0.0250341         142.131
0.626                   -7.26279         166.353         -45.4876         149.702         -45.4876         149.701       -0.0253069         142.048
0.627                   -7.39724         167.412         -45.4221         147.506         -45.4221         147.504       -0.0255837         141.965
0.628                   -7.50624         168.537         -45.3624         145.328         -45.3624         145.326       -0.0258647         141.881
0.629                   -7.58826         169.704         -45.3081         143.173         -45.3082         143.171         -0.02615         141.797
0.63                    -7.64258         170.886          -45.259         141.043         -45.2591         141.041       -0.0264396         141.713
0.631                   -7.66925         172.055         -45.2146         138.939         -45.2146         138.938       -0.0267337         141.629
0.632                   -7.66915         173.187         -45.1744         136.865         -45.1745         136.864       -0.0270324         141.544
0.633                   -7.64385         174.256          -45.138         134.822         -45.1381         134.821       -0.0273358         141.459
0.634                   -7.59549         175.242          -45.105          132.81         -45.1052         132.809       -0.0276441         141.374
0.635                   -7.52664         176.129         -45.0749         130.832         -45.0751         130.831       -0.0279574         141.288
0.636                   -7.44013         176.904         -45.0473         128.886         -45.0474         128.886       -0.0282757         141.203
0.637                   -7.33885         177.558         -45.0216         126.975         -45.0218         126.975       -0.0285993         141.116
0.638                   -7.22567         178.087         -44.9975         125.098         -44.9977         125.097       -0.0289283          141.03
0.639                   -7.10331         178.488         -44.9746         123.254         -44.9748         123.254       -0.0292627         140.943
0.64                    -6.97427         178.763         -44.9524         121.444         -44.9526         121.444       -0.0296028         140.856
0.641                    -6.8408         178.915         -44.9306         119.667         -44.9308         119.667       -0.0299487         140.769
0.642                   -6.70486         178.948         -44.9088         117.922          -44.909         117.922       -0.0303006         140.681
0.643                   -6.56814         178.868         -44.8867         116.208         -44.8869         116.209       -0.0306585         140.593
0.644                   -6.43205         178.681          -44.864         114.525         -44.8642         114.525       -0.0310227         140.505
0.645                   -6.29778         178.394         -44.8404         112.871         -44.8405         112.871       -0.0313932         140.416
0.646                   -6.16627         178.013         -44.8156         111.245         -44.8157         111.245       -0.0317703         140.327
0.647                   -6.03829         177.545         -44.7894         109.645         -44.7895         109.646       -0.0321542         140.237
0.648                   -5.91443         176.997         -44.7615         108.071         -44.7617         108.072       -0.0325448         140.148
0.649                   -5.79515         176.374         -44.7319         106.522          -44.732         106.522       -0.0329426         140.058
0.65                    -5.68078         175.682         -44.7002         104.995         -44.7003         104.996       -0.0333475         139.967
0.651                   -5.57157         174.927         -44.6664         103.489         -44.6665          103.49       -0.0337598         139.876
0.652                   -5.46768         174.112         -44.6303         102.004         -44.6304         102.005       -0.0341797         139.785
0.653                   -5.36919         173.242         -44.5917         100.537         -44.5918         100.538       -0.0346073         139.693
0.654                   -5.27617         172.321         -44.5506         99.0879         -44.5507         99.0889       -0.0350428         139.601
0.655                   -5.18861         171.353         -44.5069         97.6545          -44.507         97.6555       -0.0354863         139.509
0.656                   -5.10649         170.341         -44.4605         96.2358         -44.4606         96.2367       -0.0359382         139.416
0.657                   -5.02975         169.287         -44.4113         94.8304         -44.4114         94.8313       -0.0363985         139.323
0.658                   -4.95834         168.194         -44.3593         93.4369         -44.3594         93.4379       -0.0368675          139.23
0.659                   -4.89219         167.064         -44.3045         92.0543         -44.3045         92.0552       -0.0373454         139.136
0.66                    -4.83119         165.899         -44.2467         90.6811         -44.2467          90.682       -0.0378322         139.041
0.661                   -4.77528         164.701          -44.186         89.3162          -44.186         89.3171       -0.0383284         138.946
0.662                   -4.72436          163.47         -44.1224         87.9584         -44.1224         87.9592        -0.038834         138.851
0.663                   -4.67834         162.209         -44.0558         86.6065         -44.0558         86.6073       -0.0393492         138.756
0.664                   -4.63715         160.917         -43.9862         85.2594         -43.9863         85.2602       -0.0398744         138.659
0.665                   -4.60071         159.597         -43.9138          83.916         -43.9138         83.9168       -0.0404096         138.563
0.666                   -4.56894         158.249         -43.8383         82.5752         -43.8384          82.576       -0.0409551         138.466
0.667                   -4.54178         156.872           -43.76          81.236         -43.7601         81.2367       -0.0415112         138.368
0.668                   -4.51917         155.468         -43.6788         79.8972         -43.6789         79.8979        -0.042078          138.27
0.669                   -4.50107         154.037         -43.5948          78.558         -43.5948         78.5586       -0.0426559         138.172
0.67                    -4.48743         152.578         -43.5079         77.2172         -43.5079         77.2178       -0.0432449         138.073
0.671                   -4.47823         151.093         -43.4183         75.8741         -43.4183         75.8746       -0.0438454         137.974
0.672                   -4.47343          149.58         -43.3259         74.5276          -43.326          74.528       -0.0444577         137.874
0.673                   -4.47303          148.04         -43.2309         73.1767         -43.2309         73.1772       -0.0450819         137.773
0.674                   -4.47703         146.472         -43.1333         71.8207         -43.1333         71.8211       -0.0457183         137.673
0.675                   -4.48544         144.876          -43.033         70.4587         -43.0331          70.459       -0.0463673         137.571
0.676                   -4.49827         143.252         -42.9303         69.0897         -42.9304           69.09       -0.0470289         137.469
0.677                   -4.51555         141.599         -42.8252          67.713         -42.8252         67.7132       -0.0477036         137.367
0.678                   -4.53732         139.916         -42.7178         66.3277         -42.7178         66.3279       -0.0483916         137.264
0.679                   -4.56362         138.203          -42.608         64.9331         -42.6081         64.9333       -0.0490932          137.16
0.68                    -4.59453          136.46         -42.4961         63.5285         -42.4961         63.5286       -0.0498087         137.056
0.681                   -4.63011         134.684         -42.3821         62.1129         -42.3822          62.113       -0.0505383         136.951
0.682                   -4.67044         132.877         -42.2661         60.6859         -42.2662         60.6859       -0.0512825         136.846
0.683                   -4.71561         131.035         -42.1482         59.2466         -42.1483         59.2466       -0.0520414          136.74
0.684                   -4.76572          129.16         -42.0286         57.7943         -42.0286         57.7943       -0.0528155         136.634
0.685                    -4.8209         127.249         -41.9072         56.3285         -41.9072         56.3285        -0.053605         136.527
0.686                   -4.88127         125.301         -41.7843         54.8486         -41.7843         54.8486       -0.0544103         136.419
0.687                   -4.94695         123.316         -41.6599         53.3539           -41.66         53.3539       -0.0552318         136.311
0.688                   -5.01811         121.291         -41.5342          51.844         -41.5343         51.8439       -0.0560698         136.202
0.689                   -5.09489         119.226         -41.4074         50.3183         -41.4074         50.3182       -0.0569246         136.092
0.69                    -5.17746         117.119         -41.2795         48.7764         -41.2795         48.7762       -0.0577967         135.982
0.691                   -5.26601         114.969         -41.1506         47.2178         -41.1507         47.2176       -0.0586864         135.871
0.692                   -5.36072         112.773          -41.021         45.6422         -41.0211          45.642       -0.0595942         135.759
0.693                   -5.46179         110.531         -40.8908         44.0493         -40.8909         44.0491       -0.0605205         135.647
0.694                   -5.56942          108.24         -40.7602         42.4387         -40.7603         42.4385       -0.0614656         135.534
0.695                   -5.68384         105.898         -40.6293         40.8104         -40.6293         40.8102       -0.0624301          135.42
0.696                   -5.80525         103.503         -40.4982         39.1641         -40.4982         39.1639       -0.0634143         135.306