! TOUCHSTONE file generated by CST MICROWAVE STUDIO
! Date and time: Sat Nov 14 20:43:24 2020
! Project name: Scenario_1_Planar_Body_Tissue_Out_of_Line_v2.cst
! Parameters = {dy1=-276.8; L_HA=400; Ltissue=700; MT=2.54; Rad_Dielectric=30; Rad_Lower=7.3; Rad_Upper=30; Wtissue=700; a_HA=580; a_WG=246; b_HA=500; b_WG=121; c_HA=0; c_WG=187; d_feed=85; dx1=173; h_feed=15; h_lower=18; h_upper=40; hfat=3; hgap=25; hmuscle=50; hskin=1.5}
! Header version: 2018
! Port assignment regex: !\s*Touchstone port\s*([0-9]+)\s*=\s*(CST MWS port|CST DS port)\s*([0-9]+|Zmin|Zmax)\s*\(\"(.*)\"\)(\s*mode\s*([0-9]+))?.*
! Touchstone port assignment:
! Touchstone port 1 = CST MWS port 1 ("")
! Touchstone port 2 = CST MWS port 2 ("")
# GHz S DB R 50
0.5                   -0.0623336        -121.793         -64.8058         122.181         -64.8056         122.183      -0.00697876         151.141
0.501                 -0.0640994        -122.242         -64.6285         121.652         -64.6283         121.654      -0.00703917         151.075
0.502                 -0.0659834        -122.694         -64.4475         121.115         -64.4474         121.116      -0.00710029          151.01
0.503                 -0.0679915        -123.149         -64.2629         120.568         -64.2628          120.57      -0.00716213         150.944
0.504                   -0.07013        -123.608         -64.0747         120.012         -64.0746         120.014      -0.00722468         150.879
0.505                 -0.0724055        -124.071         -63.8828         119.448         -63.8828         119.449      -0.00728793         150.813
0.506                 -0.0748254        -124.537         -63.6872         118.873         -63.6873         118.875      -0.00735189         150.748
0.507                 -0.0773974        -125.006          -63.488         118.289         -63.4881         118.291      -0.00741654         150.682
0.508                 -0.0801295         -125.48         -63.2852         117.695         -63.2853         117.697      -0.00748188         150.616
0.509                 -0.0830308        -125.957         -63.0787         117.091         -63.0789         117.092       -0.0075479          150.55
0.51                  -0.0861105        -126.439         -62.8686         116.476         -62.8688         116.477      -0.00761459         150.484
0.511                 -0.0893789        -126.924         -62.6548         115.851          -62.655         115.852      -0.00768194         150.418
0.512                 -0.0928468        -127.414         -62.4373         115.214         -62.4376         115.215      -0.00774995         150.352
0.513                 -0.0965259        -127.908         -62.2162         114.566         -62.2165         114.567      -0.00781861         150.286
0.514                  -0.100429        -128.406         -61.9914         113.906         -61.9917         113.907       -0.0078879         150.219
0.515                  -0.104569        -128.909         -61.7629         113.234         -61.7633         113.235       -0.0079578         150.153
0.516                  -0.108961        -129.417         -61.5308         112.549         -61.5312          112.55      -0.00802831         150.086
0.517                  -0.113621        -129.929         -61.2951         111.852         -61.2955         111.853      -0.00809942          150.02
0.518                  -0.118565        -130.446         -61.0556         111.142          -61.056         111.142       -0.0081711         149.953
0.519                  -0.123812        -130.969         -60.8125         110.417         -60.8129         110.418      -0.00824333         149.886
0.52                   -0.129381        -131.496         -60.5657         109.679         -60.5662          109.68      -0.00831611          149.82
0.521                  -0.135294        -132.029         -60.3153         108.926         -60.3157         108.927       -0.0083894         149.753
0.522                  -0.141575        -132.567         -60.0612         108.158         -60.0616         108.159      -0.00846319         149.686
0.523                  -0.148247        -133.111         -59.8033         107.375         -59.8038         107.376      -0.00853745         149.619
0.524                  -0.155339         -133.66         -59.5418         106.575         -59.5423         106.576      -0.00861216         149.551
0.525                  -0.162879        -134.216         -59.2767         105.759         -59.2772          105.76       -0.0086873         149.484
0.526                    -0.1709        -134.778         -59.0078         104.925         -59.0083         104.926      -0.00876283         149.417
0.527                  -0.179437        -135.346         -58.7352         104.074         -58.7357         104.074      -0.00883873         149.349
0.528                  -0.188528         -135.92         -58.4589         103.203         -58.4595         103.204      -0.00891496         149.282
0.529                  -0.198214        -136.502          -58.179         102.314         -58.1795         102.314      -0.00899151         149.214
0.53                    -0.20854         -137.09         -57.8953         101.404         -57.8958         101.404      -0.00906833         149.146
0.531                  -0.219555        -137.685         -57.6079         100.473         -57.6084         100.474      -0.00914539         149.078
0.532                  -0.231313        -138.288         -57.3168         99.5201         -57.3173         99.5208      -0.00922268         149.011
0.533                  -0.243873        -138.898          -57.022         98.5445         -57.0225         98.5452      -0.00930017         148.942
0.534                    -0.2573        -139.516         -56.7234         97.5451          -56.724         97.5459      -0.00937782         148.874
0.535                  -0.271664        -140.142         -56.4212         96.5208         -56.4217         96.5216      -0.00945563         148.806
0.536                  -0.287042        -140.776         -56.1152         95.4706         -56.1158         95.4714      -0.00953359         148.738
0.537                  -0.303519        -141.418         -55.8056         94.3932         -55.8061          94.394      -0.00961171         148.669
0.538                  -0.321189        -142.069         -55.4922         93.2873         -55.4928         93.2881      -0.00968999         148.601
0.539                  -0.340153        -142.729         -55.1752         92.1517         -55.1758         92.1525      -0.00976847         148.532
0.54                   -0.360524        -143.398         -54.8546         90.9848         -54.8551         90.9856      -0.00984723         148.463
0.541                  -0.382426        -144.076         -54.5303         89.7852         -54.5309          89.786      -0.00992634         148.394
0.542                  -0.405995        -144.764         -54.2025         88.5512          -54.203         88.5521       -0.0100059         148.325
0.543                  -0.431381        -145.461         -53.8712         87.2811         -53.8717          87.282       -0.0100862         148.256
0.544                  -0.458747        -146.168         -53.5363         85.9731         -53.5368          85.974       -0.0101674         148.187
0.545                  -0.488277        -146.884         -53.1981         84.6252         -53.1986         84.6262       -0.0102498         148.117
0.546                  -0.520167         -147.61         -52.8566         83.2355          -52.857         83.2364       -0.0103337         148.048
0.547                  -0.554639        -148.346         -52.5118         81.8016         -52.5123         81.8026       -0.0104197         147.978
0.548                  -0.591931        -149.091          -52.164         80.3215         -52.1645         80.3225       -0.0105084         147.908
0.549                  -0.632306        -149.845         -51.8133         78.7925         -51.8137         78.7936       -0.0106003         147.838
0.55                   -0.676053        -150.607         -51.4598         77.2123         -51.4602         77.2134       -0.0106963         147.768
0.551                  -0.723484        -151.378         -51.1038         75.5782         -51.1042         75.5792       -0.0107972         147.698
0.552                   -0.77494        -152.155         -50.7455         73.8874         -50.7459         73.8884       -0.0109039         147.627
0.553                   -0.83079        -152.939         -50.3851          72.137         -50.3855         72.1381       -0.0110173         147.557
0.554                  -0.891427        -153.727         -50.0232         70.3243         -50.0236         70.3254       -0.0111385         147.486
0.555                  -0.957273        -154.518         -49.6599         68.4461         -49.6603         68.4471       -0.0112682         147.415
0.556                   -1.02877        -155.309         -49.2958         66.4994         -49.2962         66.5005       -0.0114071         147.344
0.557                   -1.10639        -156.097         -48.9314         64.4812         -48.9317         64.4823       -0.0115557         147.273
0.558                   -1.19058         -156.88         -48.5673         62.3885         -48.5676         62.3896       -0.0117142         147.202
0.559                   -1.28184        -157.652          -48.204         60.2185         -48.2043         60.2196       -0.0118823         147.131
0.56                     -1.3806        -158.408         -47.8424         57.9684         -47.8426         57.9694       -0.0120597         147.059
0.561                   -1.48727        -159.142         -47.4832         55.6358         -47.4834         55.6368       -0.0122454         146.988
0.562                   -1.60219        -159.847         -47.1273         53.2185         -47.1275         53.2194       -0.0124383         146.916
0.563                   -1.72558        -160.515         -46.7758         50.7148          -46.776         50.7158       -0.0126373         146.845
0.564                   -1.85751        -161.135         -46.4297         48.1238         -46.4299         48.1246       -0.0128408         146.773
0.565                   -1.99782        -161.698         -46.0902         45.4448         -46.0904         45.4457       -0.0130476         146.701
0.566                   -2.14605        -162.189         -45.7585         42.6785         -45.7587         42.6793       -0.0132563         146.629
0.567                    -2.3014        -162.598         -45.4359         39.8261          -45.436         39.8268       -0.0134657         146.557
0.568                    -2.4626         -162.91         -45.1237         36.8901         -45.1238         36.8908        -0.013675         146.485
0.569                   -2.62786        -163.112         -44.8232         33.8742         -44.8233         33.8748       -0.0138834         146.413
0.57                    -2.79482        -163.193         -44.5358         30.7833         -44.5358         30.7837       -0.0140903         146.341
0.571                   -2.96052        -163.143         -44.2626         27.6235         -44.2627         27.6238       -0.0142954         146.268
0.572                   -3.12143        -162.956         -44.0049         24.4024          -44.005         24.4026       -0.0144985         146.196
0.573                   -3.27359         -162.63         -43.7637         21.1287         -43.7638         21.1289       -0.0146996         146.123
0.574                   -3.41278        -162.171         -43.5399         17.8122         -43.5399         17.8123       -0.0148987         146.051
0.575                    -3.5348        -161.592         -43.3341         14.4638         -43.3341         14.4637       -0.0150959         145.978
0.576                   -3.63583        -160.911         -43.1468         11.0946         -43.1468         11.0945       -0.0152916         145.905
0.577                   -3.71278        -160.155         -42.9781         7.71654         -42.9781         7.71634       -0.0154858         145.831
0.578                   -3.76357        -159.355          -42.828          4.3414          -42.828         4.34112       -0.0156788         145.758
0.579                   -3.78738        -158.545         -42.6962        0.980771         -42.6962        0.980413       -0.0158709         145.685
0.58                    -3.78469        -157.757         -42.5821        -2.35432         -42.5821        -2.35475       -0.0160624         145.611
0.581                   -3.75717        -157.024          -42.485        -5.65365          -42.485        -5.65414       -0.0162536         145.537
0.582                   -3.70745         -156.37         -42.4038        -8.90801         -42.4038        -8.90854       -0.0164445         145.463
0.583                   -3.63884        -155.816         -42.3376        -12.1094         -42.3376        -12.1099       -0.0166356         145.389
0.584                   -3.55494        -155.374         -42.2851         -15.251         -42.2851        -15.2516       -0.0168269         145.315
0.585                   -3.45941        -155.053          -42.245        -18.3273          -42.245         -18.328       -0.0170188         145.241
0.586                   -3.35569        -154.854          -42.216        -21.3344          -42.216         -21.335       -0.0172113         145.166
0.587                   -3.24688        -154.774         -42.1969        -24.2691         -42.1969        -24.2697       -0.0174047         145.091
0.588                   -3.13562        -154.809         -42.1862        -27.1297         -42.1862        -27.1304       -0.0175991         145.016
0.589                   -3.02411        -154.949         -42.1829        -29.9155         -42.1829        -29.9162       -0.0177947         144.941
0.59                    -2.91407        -155.186         -42.1856        -32.6266         -42.1856        -32.6272       -0.0179916         144.866
0.591                   -2.80683        -155.512         -42.1934        -35.2638         -42.1934        -35.2644       -0.0181899         144.791
0.592                   -2.70338        -155.917         -42.2052        -37.8286         -42.2052        -37.8292       -0.0183897         144.715
0.593                   -2.60439        -156.391         -42.2201        -40.3231         -42.2201        -40.3237       -0.0185912         144.639
0.594                   -2.51031        -156.927         -42.2372        -42.7497         -42.2372        -42.7502       -0.0187945         144.563
0.595                   -2.42137        -157.518         -42.2558         -45.111         -42.2558        -45.1115       -0.0189996         144.487
0.596                   -2.33771        -158.157         -42.2753          -47.41         -42.2753        -47.4104       -0.0192066         144.411
0.597                    -2.2593        -158.837          -42.295        -49.6496          -42.295          -49.65       -0.0194157         144.334
0.598                   -2.18607        -159.554         -42.3144        -51.8331         -42.3144        -51.8334       -0.0196268         144.258
0.599                   -2.11788        -160.303         -42.3331        -53.9635         -42.3332        -53.9638       -0.0198401         144.181
0.6                     -2.05456        -161.081         -42.3508        -56.0439         -42.3508        -56.0442       -0.0200557         144.104
0.601                   -1.99591        -161.883          -42.367        -58.0775          -42.367        -58.0777       -0.0202736         144.026
0.602                   -1.94171        -162.708         -42.3814        -60.0672         -42.3814        -60.0674       -0.0204939         143.949
0.603                   -1.89175        -163.553          -42.394         -62.016          -42.394        -62.0162       -0.0207166         143.871
0.604                   -1.84582        -164.416         -42.4043        -63.9266         -42.4043        -63.9267       -0.0209419         143.793
0.605                   -1.80371        -165.295         -42.4124        -65.8018         -42.4124        -65.8019       -0.0211697         143.715
0.606                   -1.76522        -166.189          -42.418        -67.6442          -42.418        -67.6442       -0.0214002         143.637
0.607                   -1.73015        -167.096          -42.421        -69.4562          -42.421        -69.4562       -0.0216333         143.558
0.608                   -1.69833        -168.017         -42.4214        -71.2402         -42.4214        -71.2402       -0.0218693          143.48
0.609                   -1.66959        -168.949         -42.4192        -72.9985         -42.4191        -72.9984        -0.022108         143.401
0.61                    -1.64377        -169.893         -42.4141        -74.7331         -42.4141        -74.7331       -0.0223497         143.321
0.611                   -1.62074        -170.848         -42.4063        -76.4463         -42.4062        -76.4462       -0.0225943         143.242
0.612                   -1.60035        -171.814         -42.3957        -78.1397         -42.3956        -78.1396       -0.0228419         143.163
0.613                    -1.5825         -172.79         -42.3823        -79.8154         -42.3822        -79.8153       -0.0230925         143.083
0.614                   -1.56707        -173.776         -42.3661         -81.475          -42.366        -81.4749       -0.0233463         143.003
0.615                   -1.55396        -174.773         -42.3471        -83.1203          -42.347        -83.1201       -0.0236032         142.922
0.616                   -1.54309        -175.779         -42.3254        -84.7526         -42.3253        -84.7524       -0.0238634         142.842
0.617                   -1.53438        -176.796         -42.3009        -86.3736         -42.3008        -86.3734       -0.0241269         142.761
0.618                   -1.52776        -177.823         -42.2738        -87.9847         -42.2737        -87.9845       -0.0243938          142.68
0.619                   -1.52316        -178.861          -42.244        -89.5872         -42.2439        -89.5869        -0.024664         142.599
0.62                    -1.52054        -179.909         -42.2116        -91.1823         -42.2115        -91.1821       -0.0249378         142.518
0.621                   -1.51985         179.032         -42.1767        -92.7713         -42.1766        -92.7711       -0.0252152         142.436
0.622                   -1.52105         177.963         -42.1393        -94.3554         -42.1392        -94.3551       -0.0254961         142.354
0.623                   -1.52412         176.882         -42.0994        -95.9356         -42.0993        -95.9353       -0.0257808         142.272
0.624                   -1.52902         175.789         -42.0572         -97.513         -42.0571        -97.5128       -0.0260691         142.189
0.625                   -1.53574         174.685         -42.0126        -99.0886         -42.0125        -99.0884       -0.0263614         142.107
0.626                   -1.54428         173.568         -41.9658        -100.663         -41.9657        -100.663       -0.0266575         142.024
0.627                   -1.55462         172.439         -41.9168        -102.238         -41.9167        -102.238       -0.0269576          141.94
0.628                   -1.56676         171.298         -41.8657        -103.814         -41.8655        -103.814       -0.0272617         141.857
0.629                   -1.58071         170.143         -41.8125        -105.392         -41.8124        -105.391         -0.02757         141.773
0.63                    -1.59648         168.974         -41.7573        -106.972         -41.7572        -106.971       -0.0278824         141.689
0.631                   -1.61409         167.791         -41.7003        -108.555         -41.7002        -108.555       -0.0281991         141.605
0.632                   -1.63357         166.594         -41.6414        -110.143         -41.6413        -110.142       -0.0285202          141.52
0.633                   -1.65492         165.383         -41.5808        -111.735         -41.5807        -111.734       -0.0288456         141.435
0.634                    -1.6782         164.156         -41.5185        -113.332         -41.5184        -113.332       -0.0291756          141.35
0.635                   -1.70344         162.913         -41.4547        -114.936         -41.4545        -114.936       -0.0295102         141.265
0.636                   -1.73067         161.654         -41.3893        -116.546         -41.3892        -116.546       -0.0298495         141.179
0.637                   -1.75995         160.378         -41.3225        -118.163         -41.3224        -118.163       -0.0301936         141.093
0.638                   -1.79133         159.085         -41.2544        -119.788         -41.2543        -119.788       -0.0305425         141.006
0.639                   -1.82487         157.774         -41.1851        -121.422          -41.185        -121.422       -0.0308964          140.92
0.64                    -1.86063         156.445         -41.1146        -123.064         -41.1145        -123.063       -0.0312553         140.833
0.641                   -1.89868         155.098         -41.0431        -124.715         -41.0429        -124.715       -0.0316194         140.745
0.642                   -1.93909         153.731         -40.9706        -126.375         -40.9704        -126.375       -0.0319888         140.658
0.643                   -1.98195         152.344         -40.8972        -128.046         -40.8971        -128.046       -0.0323635          140.57
0.644                   -2.02735         150.937         -40.8231        -129.727          -40.823        -129.726       -0.0327436         140.481
0.645                   -2.07536         149.508         -40.7483        -131.418         -40.7482        -131.418       -0.0331293         140.393
0.646                    -2.1261         148.058          -40.673         -133.12         -40.6729         -133.12       -0.0335207         140.304
0.647                   -2.17966         146.586         -40.5972        -134.833         -40.5971        -134.833       -0.0339179         140.214
0.648                   -2.23616         145.091          -40.521        -136.558         -40.5209        -136.558        -0.034321         140.125
0.649                   -2.29571         143.572         -40.4446        -138.294         -40.4445        -138.294       -0.0347302         140.035
0.65                    -2.35843         142.029         -40.3681        -140.042          -40.368        -140.042       -0.0351454         139.944
0.651                   -2.42446         140.461         -40.2916        -141.801         -40.2915        -141.801        -0.035567         139.854
0.652                   -2.49393         138.868         -40.2151        -143.572          -40.215        -143.572       -0.0359949         139.763
0.653                   -2.56699         137.248         -40.1388        -145.355         -40.1387        -145.355       -0.0364294         139.671
0.654                   -2.64379         135.601         -40.0628        -147.149         -40.0628        -147.149       -0.0368705         139.579
0.655                   -2.72448         133.927         -39.9873        -148.956         -39.9872        -148.956       -0.0373185         139.487
0.656                   -2.80924         132.224         -39.9123        -150.774         -39.9122        -150.773       -0.0377734         139.394
0.657                   -2.89823         130.491         -39.8378        -152.603         -39.8378        -152.603       -0.0382354         139.301
0.658                   -2.99164         128.729         -39.7642        -154.443         -39.7641        -154.443       -0.0387047         139.208
0.659                   -3.08965         126.935         -39.6914        -156.294         -39.6913        -156.294       -0.0391813         139.114
0.66                    -3.19247         125.109         -39.6195        -158.156         -39.6195        -158.156       -0.0396655          139.02
0.661                   -3.30029         123.251         -39.5487        -160.029         -39.5487        -160.029       -0.0401574         138.925
0.662                   -3.41333         121.358         -39.4791        -161.911          -39.479        -161.911       -0.0406573          138.83
0.663                   -3.53181         119.431         -39.4107        -163.802         -39.4106        -163.802       -0.0411652         138.734
0.664                   -3.65595         117.468         -39.3436        -165.703         -39.3436        -165.703       -0.0416813         138.638
0.665                   -3.78599         115.469          -39.278        -167.612          -39.278        -167.612       -0.0422058         138.542
0.666                   -3.92216         113.431         -39.2139         -169.53         -39.2139        -169.529        -0.042739         138.445
0.667                   -4.06472         111.354         -39.1515        -171.454         -39.1514        -171.454       -0.0432809         138.347
0.668                   -4.21392         109.236         -39.0907        -173.385         -39.0906        -173.385       -0.0438319          138.25
0.669                      -4.37         107.076         -39.0316        -175.323         -39.0316        -175.322        -0.044392         138.151
0.67                    -4.53324         104.873         -38.9743        -177.265         -38.9743        -177.265       -0.0449616         138.052
0.671                    -4.7039         102.625         -38.9189        -179.213         -38.9189        -179.212       -0.0455408         137.953
0.672                   -4.88225          100.33         -38.8654         178.836         -38.8654         178.836       -0.0461298         137.853
0.673                   -5.06855         97.9868         -38.8139         176.882         -38.8139         176.882        -0.046729         137.753
0.674                   -5.26307         95.5925         -38.7643         174.925         -38.7643         174.925       -0.0473384         137.652
0.675                   -5.46608         93.1452         -38.7168         172.967         -38.7168         172.967       -0.0479583         137.551
0.676                   -5.67782         90.6424         -38.6712         171.008         -38.6713         171.008       -0.0485891         137.449
0.677                   -5.89855         88.0812         -38.6277         169.049         -38.6278         169.049       -0.0492309         137.347
0.678                   -6.12849         85.4588         -38.5863         167.091         -38.5863         167.092        -0.049884         137.244
0.679                   -6.36788         82.7715         -38.5469         165.135         -38.5469         165.135       -0.0505488          137.14
0.68                    -6.61688         80.0157         -38.5095         163.181         -38.5095         163.182       -0.0512253         137.036
0.681                   -6.87567         77.1871         -38.4741         161.231         -38.4741         161.232       -0.0519141         136.931
0.682                   -7.14435          74.281         -38.4406         159.285         -38.4407         159.286       -0.0526152         136.826
0.683                   -7.42299          71.292         -38.4092         157.344         -38.4092         157.344       -0.0533292          136.72
0.684                   -7.71159         68.2145         -38.3796         155.408         -38.3796         155.409       -0.0540561         136.613
0.685                   -8.01005         65.0418         -38.3518         153.479         -38.3519          153.48       -0.0547965         136.506
0.686                   -8.31817         61.7668         -38.3258         151.557         -38.3259         151.558       -0.0555506         136.399
0.687                   -8.63564         58.3815         -38.3016         149.643         -38.3017         149.644       -0.0563188          136.29
0.688                   -8.96195         54.8771          -38.279         147.737         -38.2791         147.738       -0.0571013         136.181
0.689                   -9.29642         51.2441         -38.2581          145.84         -38.2581         145.841       -0.0578987         136.071
0.69                     -9.6381         47.4724         -38.2386         143.953         -38.2387         143.954       -0.0587112         135.961
0.691                   -9.98576         43.5512         -38.2206         142.076         -38.2207         142.077       -0.0595393          135.85
0.692                   -10.3378         39.4691          -38.204         140.209          -38.204          140.21       -0.0603833         135.738
0.693                   -10.6923         35.2148         -38.1886         138.354         -38.1887         138.355       -0.0612437         135.626
0.694                   -11.0466         30.7773         -38.1745          136.51         -38.1745         136.511       -0.0621209         135.512
0.695                   -11.3979         26.1466         -38.1614         134.678         -38.1615         134.679       -0.0630154         135.398
0.696                   -11.7424         21.3146         -38.1494         132.858         -38.1494         132.859       -0.0639275         135.284