! TOUCHSTONE file generated by CST MICROWAVE STUDIO
! Date and time: Tue Nov 24 13:46:31 2020
! Project name: Scenario_1_Planar_Body_Tissue_Out_of_Line.cst
! Parameters = {dy1=276.8; L_HA=400; Ltissue=700; MT=2.54; Rad_Dielectric=30; Rad_Lower=7.3; Rad_Upper=30; Wtissue=700; a_HA=580; a_WG=246; b_HA=500; b_WG=121; c_HA=0; c_WG=187; d_feed=85; dx1=1039; h_feed=15; h_lower=18; h_upper=40; hfat=3; hgap=25; hmuscle=50; hskin=1.5}
! Header version: 2018
! Port assignment regex: !\s*Touchstone port\s*([0-9]+)\s*=\s*(CST MWS port|CST DS port)\s*([0-9]+|Zmin|Zmax)\s*\(\"(.*)\"\)(\s*mode\s*([0-9]+))?.*
! Touchstone port assignment:
! Touchstone port 1 = CST MWS port 1 ("")
! Touchstone port 2 = CST MWS port 2 ("")
# GHz S DB R 50
0.5                    -0.146482        -121.688         -65.5531        -27.9165         -65.5526        -27.9127      -0.00763319          151.15
0.501                  -0.149061        -122.123         -65.4929        -29.6605         -65.4924        -29.6564      -0.00769775         151.085
0.502                  -0.151763         -122.56          -65.428        -31.4258         -65.4275        -31.4215      -0.00776302          151.02
0.503                  -0.154594        -123.001         -65.3584        -33.2118         -65.3579        -33.2074      -0.00782899         150.954
0.504                  -0.157562        -123.445         -65.2839        -35.0183         -65.2835        -35.0137      -0.00789567         150.889
0.505                  -0.160673        -123.891         -65.2045        -36.8448         -65.2041          -36.84      -0.00796306         150.823
0.506                  -0.163936        -124.341         -65.1201        -38.6908         -65.1197        -38.6858      -0.00803118         150.758
0.507                  -0.167358        -124.794         -65.0305        -40.5558         -65.0302        -40.5508      -0.00810002         150.692
0.508                   -0.17095        -125.251         -64.9358        -42.4395         -64.9355        -42.4343      -0.00816959         150.626
0.509                   -0.17472         -125.71         -64.8357        -44.3413         -64.8355         -44.336      -0.00823989         150.561
0.51                    -0.17868        -126.173         -64.7303        -46.2607         -64.7301        -46.2553      -0.00831094         150.495
0.511                  -0.182841        -126.639         -64.6195        -48.1974         -64.6194        -48.1919      -0.00838273         150.429
0.512                  -0.187215        -127.109         -64.5033        -50.1508         -64.5032        -50.1452      -0.00845527         150.363
0.513                  -0.191815        -127.583         -64.3817        -52.1206         -64.3816         -52.115      -0.00852856         150.296
0.514                  -0.196655         -128.06         -64.2545        -54.1063         -64.2545        -54.1007      -0.00860262          150.23
0.515                  -0.201752         -128.54         -64.1219        -56.1078          -64.122        -56.1022      -0.00867745         150.164
0.516                  -0.207121        -129.025         -63.9838        -58.1246         -63.9839         -58.119      -0.00875305         150.097
0.517                   -0.21278        -129.513         -63.8403        -60.1566         -63.8404         -60.151      -0.00882944         150.031
0.518                  -0.218748        -130.006         -63.6913        -62.2035         -63.6915         -62.198      -0.00890661         149.964
0.519                  -0.225048        -130.502          -63.537        -64.2654         -63.5372        -64.2599      -0.00898458         149.898
0.52                   -0.231701        -131.002         -63.3772        -66.3421         -63.3775        -66.3367      -0.00906336         149.831
0.521                  -0.238731        -131.507         -63.2122        -68.4337         -63.2125        -68.4284      -0.00914296         149.764
0.522                  -0.246166        -132.015          -63.042        -70.5404         -63.0423        -70.5352      -0.00922338         149.697
0.523                  -0.254033        -132.528         -62.8666        -72.6623          -62.867        -72.6573      -0.00930464          149.63
0.524                  -0.262364        -133.046         -62.6862        -74.7999         -62.6867        -74.7949      -0.00938675         149.563
0.525                  -0.271192        -133.567         -62.5009        -76.9535         -62.5014        -76.9487      -0.00946973         149.496
0.526                  -0.280553        -134.093         -62.3108        -79.1236         -62.3113         -79.119       -0.0095536         149.429
0.527                  -0.290486        -134.623         -62.1159        -81.3109         -62.1165        -81.3064      -0.00963837         149.361
0.528                  -0.301033        -135.158         -61.9165        -83.5161         -61.9171        -83.5118      -0.00972407         149.294
0.529                   -0.31224        -135.697         -61.7127        -85.7401         -61.7134         -85.736      -0.00981071         149.226
0.53                   -0.324154        -136.241         -61.5047        -87.9838         -61.5054        -87.9798      -0.00989834         149.158
0.531                  -0.336827        -136.789         -61.2927        -90.2482         -61.2933        -90.2444      -0.00998699         149.091
0.532                  -0.350316        -137.341         -61.0767        -92.5345         -61.0774        -92.5309       -0.0100767         149.023
0.533                  -0.364678        -137.897         -60.8571        -94.8439         -60.8579        -94.8405       -0.0101675         148.955
0.534                  -0.379978        -138.457         -60.6342        -97.1778         -60.6349        -97.1746       -0.0102595         148.887
0.535                  -0.396281        -139.022          -60.408        -99.5376         -60.4087        -99.5346       -0.0103527         148.819
0.536                  -0.413657         -139.59         -60.1789        -101.925         -60.1797        -101.922       -0.0104472          148.75
0.537                  -0.432177        -140.161         -59.9472        -104.341          -59.948        -104.338       -0.0105431         148.682
0.538                  -0.451917        -140.735         -59.7132        -106.788          -59.714        -106.785       -0.0106405         148.614
0.539                  -0.472951        -141.311         -59.4772        -109.267          -59.478        -109.265       -0.0107394         148.545
0.54                   -0.495356         -141.89         -59.2396         -111.78         -59.2404        -111.778       -0.0108401         148.476
0.541                  -0.519206         -142.47         -59.0008        -114.329         -59.0016        -114.327       -0.0109427         148.408
0.542                  -0.544571         -143.05         -58.7613        -116.915          -58.762        -116.913       -0.0110473         148.339
0.543                  -0.571515        -143.631         -58.5213         -119.54         -58.5221        -119.538        -0.011154          148.27
0.544                  -0.600093         -144.21         -58.2816        -122.205         -58.2823        -122.203        -0.011263         148.201
0.545                  -0.630347        -144.786         -58.0425        -124.912         -58.0432         -124.91       -0.0113744         148.131
0.546                    -0.6623        -145.359         -57.8046        -127.662         -57.8053        -127.661       -0.0114884         148.062
0.547                  -0.695952        -145.927         -57.5686        -130.456         -57.5693        -130.455       -0.0116049         147.993
0.548                  -0.731276        -146.489          -57.335        -133.295         -57.3357        -133.294       -0.0117241         147.923
0.549                  -0.768208        -147.042         -57.1045        -136.179         -57.1052        -136.178       -0.0118457         147.853
0.55                   -0.806643        -147.586         -56.8779        -139.109         -56.8785        -139.108       -0.0119696         147.784
0.551                  -0.846427        -148.119         -56.6557        -142.083         -56.6562        -142.082       -0.0120957         147.714
0.552                  -0.887357        -148.638         -56.4387        -145.102         -56.4392        -145.101       -0.0122236         147.644
0.553                   -0.92917        -149.142         -56.2277        -148.163         -56.2282        -148.162       -0.0123529         147.574
0.554                  -0.971546        -149.631         -56.0233        -151.266         -56.0237        -151.265       -0.0124833         147.504
0.555                   -1.01411        -150.102         -55.8263        -154.408         -55.8267        -154.407       -0.0126144         147.433
0.556                   -1.05644        -150.556         -55.6373        -157.585         -55.6377        -157.585       -0.0127459         147.363
0.557                   -1.09806        -150.992          -55.457        -160.795         -55.4573        -160.795       -0.0128775         147.292
0.558                   -1.13849         -151.41         -55.2859        -164.034         -55.2862        -164.033       -0.0130091         147.222
0.559                   -1.17722        -151.811         -55.1246        -167.296         -55.1248        -167.295       -0.0131406         147.151
0.56                    -1.21379        -152.197         -54.9735        -170.576         -54.9736        -170.575       -0.0132719          147.08
0.561                   -1.24773         -152.57         -54.8328         -173.87         -54.8329        -173.869       -0.0134031         147.009
0.562                   -1.27868        -152.934         -54.7029        -177.171          -54.703        -177.171       -0.0135344         146.938
0.563                   -1.30632        -153.291         -54.5839         179.526         -54.5839         179.526       -0.0136658         146.867
0.564                   -1.33047        -153.645         -54.4757         176.227         -54.4757         176.228       -0.0137975         146.796
0.565                   -1.35102        -153.999         -54.3782         172.939         -54.3781          172.94       -0.0139296         146.724
0.566                     -1.368        -154.359         -54.2912         169.668         -54.2911         169.668       -0.0140624         146.652
0.567                    -1.3815        -154.727         -54.2143         166.418         -54.2142         166.419       -0.0141959         146.581
0.568                   -1.39176        -155.107         -54.1472         163.196          -54.147         163.196       -0.0143304         146.509
0.569                   -1.39905        -155.502         -54.0891         160.006         -54.0889         160.006       -0.0144658         146.437
0.57                    -1.40372        -155.914         -54.0396         156.852         -54.0394         156.852       -0.0146024         146.365
0.571                   -1.40616        -156.346          -53.998         153.739         -53.9977         153.739       -0.0147403         146.292
0.572                   -1.40678        -156.799         -53.9635         150.669         -53.9632         150.669       -0.0148795          146.22
0.573                   -1.40599        -157.275         -53.9353         147.645          -53.935         147.645       -0.0150201         146.147
0.574                   -1.40419        -157.773         -53.9128         144.669         -53.9124         144.669       -0.0151623         146.074
0.575                   -1.40176        -158.294          -53.895         141.743         -53.8946         141.743        -0.015306         146.001
0.576                   -1.39907        -158.838         -53.8812         138.868         -53.8808         138.867       -0.0154513         145.928
0.577                   -1.39644        -159.405         -53.8706         136.043         -53.8702         136.042       -0.0155984         145.855
0.578                   -1.39416        -159.995         -53.8625         133.268         -53.8621         133.268       -0.0157471         145.782
0.579                    -1.3925        -160.605         -53.8561         130.544         -53.8557         130.544       -0.0158977         145.708
0.58                    -1.39168        -161.237         -53.8508         127.869         -53.8504         127.869       -0.0160501         145.635
0.581                   -1.39191        -161.888         -53.8459         125.242         -53.8455         125.242       -0.0162044         145.561
0.582                   -1.39336        -162.559         -53.8408         122.662         -53.8404         122.662       -0.0163606         145.487
0.583                   -1.39619        -163.248         -53.8349         120.126         -53.8345         120.126       -0.0165188         145.413
0.584                   -1.40051        -163.954         -53.8277         117.634         -53.8274         117.634        -0.016679         145.338
0.585                   -1.40646        -164.678         -53.8187         115.181         -53.8184         115.181       -0.0168412         145.264
0.586                   -1.41413        -165.417         -53.8075         112.767         -53.8072         112.767       -0.0170056         145.189
0.587                   -1.42362        -166.172         -53.7937         110.389         -53.7934          110.39       -0.0171721         145.114
0.588                   -1.43501        -166.942         -53.7769         108.045         -53.7766         108.045       -0.0173408         145.039
0.589                   -1.44838        -167.727         -53.7567         105.732         -53.7565         105.732       -0.0175117         144.964
0.59                    -1.46381        -168.525          -53.733         103.447         -53.7328         103.448       -0.0176849         144.889
0.591                   -1.48138        -169.336         -53.7055         101.189         -53.7052         101.189       -0.0178603         144.813
0.592                   -1.50116        -170.161         -53.6739         98.9536         -53.6737          98.954       -0.0180382         144.738
0.593                   -1.52322        -170.997         -53.6381         96.7395         -53.6379           96.74       -0.0182185         144.662
0.594                   -1.54765        -171.846         -53.5979         94.5439         -53.5977         94.5444       -0.0184012         144.586
0.595                   -1.57453        -172.707         -53.5532         92.3642         -53.5531         92.3648       -0.0185864          144.51
0.596                   -1.60394        -173.578          -53.504         90.1981         -53.5039         90.1987       -0.0187742         144.433
0.597                   -1.63598        -174.461         -53.4501         88.0431           -53.45         88.0438       -0.0189646         144.357
0.598                   -1.67075        -175.354         -53.3915         85.8968         -53.3914         85.8975       -0.0191576          144.28
0.599                   -1.70834        -176.257         -53.3283         83.7568         -53.3282         83.7576       -0.0193534         144.203
0.6                     -1.74888         -177.17         -53.2603          81.621         -53.2603         81.6218       -0.0195519         144.126
0.601                   -1.79246        -178.093         -53.1878         79.4871         -53.1878         79.4879       -0.0197533         144.048
0.602                   -1.83923        -179.023         -53.1107         77.3528         -53.1107         77.3536       -0.0199575         143.971
0.603                   -1.88929        -179.962          -53.029         75.2162         -53.0291          75.217       -0.0201646         143.893
0.604                    -1.9428         179.091         -52.9431         73.0751         -52.9431         73.0759       -0.0203748         143.815
0.605                   -1.99989         178.138         -52.8528         70.9276         -52.8529         70.9284        -0.020588         143.737
0.606                   -2.06071         177.179         -52.7585         68.7718         -52.7586         68.7725       -0.0208042         143.659
0.607                   -2.12541         176.214         -52.6603         66.6058         -52.6604         66.6066       -0.0210236          143.58
0.608                   -2.19414         175.246         -52.5583         64.4281         -52.5584         64.4289       -0.0212463         143.501
0.609                   -2.26707         174.274         -52.4529         62.2369          -52.453         62.2377       -0.0214722         143.422
0.61                    -2.34435         173.301         -52.3441         60.0308         -52.3442         60.0315       -0.0217014         143.343
0.611                   -2.42615         172.328         -52.2323         57.8084         -52.2324          57.809       -0.0219339         143.264
0.612                   -2.51261         171.356         -52.1178         55.5683         -52.1179         55.5689       -0.0221699         143.184
0.613                    -2.6039         170.387         -52.0007         53.3094         -52.0009           53.31       -0.0224094         143.104
0.614                   -2.70016         169.424         -51.8815         51.0308         -51.8816         51.0313       -0.0226524         143.024
0.615                   -2.80151         168.467         -51.7604         48.7315         -51.7605         48.7319        -0.022899         142.944
0.616                   -2.90807          167.52         -51.6378         46.4109         -51.6379         46.4113       -0.0231491         142.863
0.617                   -3.01994         166.586         -51.5139         44.0683          -51.514         44.0687        -0.023403         142.783
0.618                   -3.13717         165.666         -51.3891         41.7036         -51.3893         41.7039       -0.0236606         142.702
0.619                   -3.25981         164.765         -51.2638         39.3164          -51.264         39.3166       -0.0239219          142.62
0.62                    -3.38785         163.886         -51.1383         36.9068         -51.1385          36.907       -0.0241871         142.539
0.621                   -3.52123         163.032          -51.013         34.4749         -51.0131          34.475        -0.024456         142.457
0.622                   -3.65984         162.206         -50.8882         32.0212         -50.8883         32.0213       -0.0247289         142.375
0.623                    -3.8035         161.414         -50.7641         29.5463         -50.7643         29.5463       -0.0250057         142.293
0.624                   -3.95196         160.659         -50.6413         27.0508         -50.6414         27.0508       -0.0252865         142.211
0.625                   -4.10489         159.945         -50.5199         24.5358           -50.52         24.5357       -0.0255712         142.128
0.626                   -4.26185         159.276         -50.4003         22.0024         -50.4004         22.0023       -0.0258601         142.045
0.627                   -4.42232         158.657         -50.2827         19.4519         -50.2828         19.4517        -0.026153         141.962
0.628                   -4.58565         158.091         -50.1674         16.8858         -50.1675         16.8856       -0.0264501         141.878
0.629                   -4.75108         157.583         -50.0546         14.3056         -50.0547         14.3053       -0.0267513         141.794
0.63                    -4.91775         157.136         -49.9446         11.7131         -49.9447         11.7128       -0.0270568          141.71
0.631                   -5.08467         156.752         -49.8375         9.11009         -49.8375         9.10979       -0.0273665         141.626
0.632                   -5.25074         156.434         -49.7334         6.49851         -49.7334          6.4982       -0.0276806         141.541
0.633                   -5.41476         156.182         -49.6324         3.88031         -49.6324         3.87997       -0.0279991         141.456
0.634                   -5.57546         155.996         -49.5346         1.25746         -49.5346         1.25711        -0.028322         141.371
0.635                    -5.7315         155.876         -49.4401        -1.36802         -49.4401         -1.3684       -0.0286494         141.286
0.636                   -5.88154         155.819         -49.3489        -3.99418         -49.3488        -3.99457       -0.0289814           141.2
0.637                   -6.02422         155.821         -49.2608        -6.61908         -49.2608        -6.61948        -0.029318         141.114
0.638                   -6.15827         155.876          -49.176        -9.24084         -49.1759        -9.24125       -0.0296594         141.028
0.639                    -6.2825         155.978         -49.0942        -11.8577         -49.0941        -11.8581       -0.0300056         140.941
0.64                    -6.39585         156.118         -49.0154        -14.4679         -49.0153        -14.4684       -0.0303567         140.854
0.641                   -6.49749         156.286         -48.9394        -17.0701         -48.9393        -17.0705       -0.0307127         140.767
0.642                   -6.58677         156.473         -48.8661        -19.6626          -48.866        -19.6631       -0.0310739         140.679
0.643                   -6.66332         156.667         -48.7953        -22.2443         -48.7951        -22.2448       -0.0314403         140.591
0.644                   -6.72702         156.858         -48.7267         -24.814         -48.7265        -24.8145        -0.031812         140.503
0.645                   -6.77802         157.033         -48.6602        -27.3708           -48.66        -27.3713       -0.0321891         140.414
0.646                   -6.81671         157.182         -48.5956        -29.9139         -48.5954        -29.9144       -0.0325717         140.325
0.647                   -6.84374         157.295         -48.5325        -32.4426         -48.5323        -32.4431       -0.0329601         140.236
0.648                   -6.85995         157.362         -48.4709        -34.9565         -48.4707         -34.957       -0.0333543         140.146
0.649                   -6.86632         157.376         -48.4104        -37.4551         -48.4102        -37.4557       -0.0337544         140.056
0.65                      -6.864         157.329         -48.3508        -39.9384         -48.3506         -39.939       -0.0341607         139.966
0.651                   -6.85417         157.216          -48.292        -42.4063         -48.2917        -42.4069       -0.0345732         139.875
0.652                   -6.83809         157.033         -48.2335        -44.8588         -48.2333        -44.8595       -0.0349921         139.784
0.653                   -6.81702         156.776         -48.1754        -47.2963         -48.1751         -47.297       -0.0354177         139.693
0.654                    -6.7922         156.443         -48.1172         -49.719         -48.1169        -49.7197         -0.03585         139.601
0.655                   -6.76481         156.034         -48.0588        -52.1275         -48.0586        -52.1282       -0.0362893         139.508
0.656                     -6.736         155.548         -48.0001        -54.5221         -47.9999        -54.5229       -0.0367357         139.416
0.657                   -6.70683         154.985         -47.9408        -56.9036         -47.9406        -56.9044       -0.0371895         139.323
0.658                    -6.6783         154.347         -47.8808        -59.2727         -47.8806        -59.2735       -0.0376508         139.229
0.659                   -6.65132         153.635         -47.8199        -61.6302         -47.8196         -61.631       -0.0381198         139.135
0.66                    -6.62672         152.851         -47.7579        -63.9769         -47.7577        -63.9777       -0.0385967         139.041
0.661                   -6.60528         151.997         -47.6948        -66.3136         -47.6946        -66.3145       -0.0390819         138.946
0.662                    -6.5877         151.074         -47.6304        -68.6414         -47.6301        -68.6423       -0.0395754         138.851
0.663                   -6.57461         150.085         -47.5645        -70.9612         -47.5643        -70.9621       -0.0400775         138.756
0.664                   -6.56662         149.033         -47.4972         -73.274          -47.497         -73.275       -0.0405885          138.66
0.665                   -6.56425         147.918         -47.4283        -75.5809         -47.4281        -75.5819       -0.0411086         138.563
0.666                   -6.56804         146.745         -47.3577        -77.8828         -47.3575        -77.8839        -0.041638         138.466
0.667                   -6.57845         145.513         -47.2855         -80.181         -47.2853        -80.1821        -0.042177         138.369
0.668                   -6.59595         144.226         -47.2115        -82.4765         -47.2113        -82.4776       -0.0427259         138.271
0.669                   -6.62098         142.884         -47.1357        -84.7703         -47.1355        -84.7714       -0.0432849         138.172
0.67                      -6.654         141.491         -47.0581        -87.0636          -47.058        -87.0647       -0.0438543         138.074
0.671                   -6.69545         140.046         -46.9788        -89.3574         -46.9786        -89.3585       -0.0444345         137.974
0.672                   -6.74577         138.553         -46.8977        -91.6528         -46.8975        -91.6539       -0.0450256         137.874
0.673                   -6.80542         137.011         -46.8148        -93.9508         -46.8146         -93.952        -0.045628         137.774
0.674                   -6.87488         135.422         -46.7302        -96.2526         -46.7301        -96.2537        -0.046242         137.673
0.675                   -6.95467         133.788          -46.644         -98.559         -46.6439        -98.5602       -0.0468678         137.572
0.676                    -7.0453         132.109         -46.5562        -100.871         -46.5561        -100.872       -0.0475059          137.47
0.677                   -7.14735         130.387         -46.4668         -103.19         -46.4667        -103.191       -0.0481565         137.367
0.678                   -7.26142         128.622         -46.3761        -105.516          -46.376        -105.517         -0.04882         137.264
0.679                   -7.38817         126.816          -46.284        -107.851          -46.284        -107.852       -0.0494967         137.161
0.68                    -7.52831          124.97         -46.1908        -110.195         -46.1907        -110.196        -0.050187         137.056
0.681                   -7.68259         123.085         -46.0965        -112.549         -46.0964         -112.55       -0.0508912         136.952
0.682                   -7.85185         121.162         -46.0013        -114.914         -46.0012        -114.915       -0.0516096         136.846
0.683                   -8.03701         119.203         -45.9053        -117.289         -45.9053         -117.29       -0.0523427          136.74
0.684                   -8.23906         117.208         -45.8087        -119.677         -45.8087        -119.678       -0.0530907         136.634
0.685                   -8.45909         115.179         -45.7117        -122.077         -45.7117        -122.078       -0.0538542         136.527
0.686                    -8.6983         113.118         -45.6145        -124.489         -45.6145         -124.49       -0.0546334         136.419
0.687                   -8.95804         111.027         -45.5173        -126.915         -45.5172        -126.915       -0.0554288          136.31
0.688                   -9.23977         108.907         -45.4202        -129.353         -45.4202        -129.353       -0.0562407         136.201
0.689                   -9.54515         106.762         -45.3235        -131.804         -45.3235        -131.804       -0.0570697         136.091
0.69                    -9.87604         104.593         -45.2273        -134.267         -45.2273        -134.268        -0.057916         135.981
0.691                   -10.2345         102.405          -45.132        -136.744          -45.132        -136.744       -0.0587801          135.87
0.692                    -10.623           100.2         -45.0378        -139.232         -45.0377        -139.233       -0.0596625         135.758
0.693                   -11.0443          97.983         -44.9447        -141.732         -44.9447        -141.732       -0.0605635         135.646
0.694                   -11.5014         95.7586         -44.8531        -144.242         -44.8531        -144.243       -0.0614837         135.532
0.695                   -11.9982         93.5327         -44.7631        -146.763         -44.7631        -146.763       -0.0624235         135.418
0.696                   -12.5391         91.3124          -44.675        -149.292          -44.675        -149.293       -0.0633834         135.304