! TOUCHSTONE file generated by CST MICROWAVE STUDIO
! Date and time: Mon Nov 30 09:13:08 2020
! Project name: Scenario_1_Planar_Body_Tissue_Out_of_Line_v2.cst
! Parameters = {dy1=294.1; L_HA=400; Ltissue=700; MT=2.54; Rad_Dielectric=30; Rad_Lower=7.3; Rad_Upper=30; Wtissue=700; a_HA=580; a_WG=246; b_HA=500; b_WG=121; c_HA=0; c_WG=187; d_feed=85; dx1=346; h_feed=15; h_lower=18; h_upper=40; hfat=3; hgap=25; hmuscle=50; hskin=1.5}
! Header version: 2018
! Port assignment regex: !\s*Touchstone port\s*([0-9]+)\s*=\s*(CST MWS port|CST DS port)\s*([0-9]+|Zmin|Zmax)\s*\(\"(.*)\"\)(\s*mode\s*([0-9]+))?.*
! Touchstone port assignment:
! Touchstone port 1 = CST MWS port 1 ("")
! Touchstone port 2 = CST MWS port 2 ("")
# GHz S DB R 50
0.5                    -0.232657        -121.772         -58.5032        -3.21266         -58.5033        -3.21256      -0.00809913          151.15
0.501                  -0.239478        -122.173          -58.366        -5.69321         -58.3661        -5.69311      -0.00815217         151.085
0.502                  -0.246184        -122.575         -58.2349         -8.1747         -58.2351        -8.17457      -0.00820507          151.02
0.503                  -0.252751        -122.977         -58.1099        -10.6546         -58.1101        -10.6545      -0.00825782         150.955
0.504                  -0.259156         -123.38         -57.9911        -13.1305         -57.9912        -13.1302      -0.00831042          150.89
0.505                   -0.26538        -123.784         -57.8783        -15.5997         -57.8784        -15.5994      -0.00836287         150.824
0.506                  -0.271404        -124.188         -57.7714          -18.06         -57.7716        -18.0596      -0.00841518         150.759
0.507                  -0.277216        -124.594         -57.6705        -20.5089         -57.6706        -20.5083      -0.00846736         150.693
0.508                  -0.282806        -125.002         -57.5753         -22.944         -57.5754        -22.9434      -0.00851945         150.628
0.509                  -0.288165        -125.411         -57.4856        -25.3634         -57.4858        -25.3626      -0.00857148         150.562
0.51                   -0.293293        -125.823         -57.4014        -27.7649         -57.4015        -27.7639       -0.0086235         150.496
0.511                  -0.298188        -126.236         -57.3223        -30.1465         -57.3225        -30.1455      -0.00867556          150.43
0.512                  -0.302855        -126.652         -57.2482        -32.5067         -57.2483        -32.5055      -0.00872774         150.364
0.513                    -0.3073         -127.07         -57.1788        -34.8437         -57.1789        -34.8423      -0.00878012         150.298
0.514                  -0.311532        -127.492         -57.1138        -37.1562         -57.1139        -37.1547      -0.00883282         150.232
0.515                  -0.315564        -127.916         -57.0529        -39.4429          -57.053        -39.4413      -0.00888595         150.166
0.516                  -0.319409        -128.344          -56.996        -41.7028          -56.996         -41.701      -0.00893964         150.099
0.517                  -0.323084        -128.775         -56.9426        -43.9349         -56.9427         -43.933      -0.00899403         150.033
0.518                  -0.326605        -129.209         -56.8925        -46.1385         -56.8926        -46.1365      -0.00904929         149.966
0.519                  -0.329991        -129.648         -56.8455         -48.313         -56.8455        -48.3108      -0.00910556           149.9
0.52                    -0.33326         -130.09         -56.8012         -50.458         -56.8012        -50.4557      -0.00916303         149.833
0.521                  -0.336433        -130.536         -56.7593        -52.5731         -56.7593        -52.5708      -0.00922187         149.766
0.522                  -0.339528        -130.986         -56.7197        -54.6583         -56.7196        -54.6559      -0.00928223         149.699
0.523                  -0.342567         -131.44         -56.6819        -56.7135         -56.6818        -56.7109      -0.00934428         149.632
0.524                  -0.345569        -131.899         -56.6458        -58.7387         -56.6457        -58.7361      -0.00940818         149.565
0.525                  -0.348552        -132.362          -56.611        -60.7342          -56.611        -60.7315      -0.00947404         149.498
0.526                  -0.351538        -132.829         -56.5775        -62.7002         -56.5774        -62.6975        -0.009542         149.431
0.527                  -0.354544        -133.301         -56.5449        -64.6371         -56.5447        -64.6343      -0.00961215         149.363
0.528                  -0.357589        -133.777         -56.5129        -66.5453         -56.5128        -66.5425      -0.00968456         149.296
0.529                  -0.360691        -134.258         -56.4815        -68.4253         -56.4814        -68.4225      -0.00975928         149.228
0.53                   -0.363867        -134.744         -56.4504        -70.2777         -56.4502        -70.2749      -0.00983633          149.16
0.531                  -0.367133        -135.235         -56.4194         -72.103         -56.4192        -72.1002      -0.00991572         149.093
0.532                  -0.370507         -135.73         -56.3883        -73.9019         -56.3881        -73.8991      -0.00999744         149.025
0.533                  -0.374003         -136.23          -56.357        -75.6751         -56.3568        -75.6723       -0.0100814         148.957
0.534                  -0.377638        -136.735         -56.3254        -77.4232         -56.3252        -77.4204       -0.0101677         148.889
0.535                  -0.381427        -137.245         -56.2932         -79.147          -56.293        -79.1442       -0.0102561          148.82
0.536                  -0.385384        -137.759         -56.2603        -80.8473         -56.2601        -80.8445       -0.0103466         148.752
0.537                  -0.389524        -138.279         -56.2267        -82.5246         -56.2264        -82.5219       -0.0104391         148.684
0.538                  -0.393862        -138.804         -56.1921        -84.1799         -56.1919        -84.1772       -0.0105335         148.615
0.539                  -0.398412        -139.334         -56.1565        -85.8139         -56.1563        -85.8113       -0.0106298         148.547
0.54                   -0.403188        -139.869         -56.1199        -87.4273         -56.1196        -87.4247       -0.0107278         148.478
0.541                  -0.408204         -140.41          -56.082        -89.0209         -56.0817        -89.0184       -0.0108276         148.409
0.542                  -0.413476        -140.956         -56.0428        -90.5955         -56.0425         -90.593       -0.0109289          148.34
0.543                  -0.419017        -141.507         -56.0022        -92.1518         -56.0019        -92.1494       -0.0110317         148.271
0.544                  -0.424843        -142.064         -55.9601        -93.6906         -55.9599        -93.6882       -0.0111361         148.202
0.545                  -0.430969        -142.626         -55.9166        -95.2125         -55.9163        -95.2103       -0.0112418         148.133
0.546                  -0.437411        -143.193         -55.8714        -96.7185         -55.8711        -96.7162       -0.0113489         148.064
0.547                  -0.444185        -143.767         -55.8245        -98.2091         -55.8243        -98.2069       -0.0114573         147.994
0.548                  -0.451308        -144.346          -55.776         -99.685         -55.7757         -99.683        -0.011567         147.925
0.549                  -0.458797        -144.931         -55.7257        -101.147         -55.7254        -101.145       -0.0116779         147.855
0.55                    -0.46667        -145.522         -55.6735        -102.596         -55.6733        -102.594       -0.0117901         147.786
0.551                  -0.474948        -146.119         -55.6195        -104.032         -55.6193        -104.031       -0.0119034         147.716
0.552                  -0.483648        -146.722         -55.5636        -105.457         -55.5634        -105.455        -0.012018         147.646
0.553                  -0.492794        -147.332         -55.5058         -106.87         -55.5055        -106.869       -0.0121337         147.576
0.554                  -0.502405        -147.948         -55.4459        -108.273         -55.4457        -108.272       -0.0122506         147.506
0.555                  -0.512507         -148.57         -55.3841        -109.667         -55.3838        -109.665       -0.0123687         147.435
0.556                  -0.523122        -149.199         -55.3202        -111.051           -55.32        -111.049       -0.0124879         147.365
0.557                  -0.534278        -149.834         -55.2542        -112.426          -55.254        -112.425       -0.0126084         147.294
0.558                  -0.546001        -150.477         -55.1862        -113.794         -55.1859        -113.792         -0.01273         147.224
0.559                  -0.558321        -151.126         -55.1159        -115.154         -55.1157        -115.153       -0.0128529         147.153
0.56                   -0.571269        -151.782         -55.0436        -116.508         -55.0434        -116.507        -0.012977         147.082
0.561                  -0.584877        -152.446          -54.969        -117.856         -54.9688        -117.855       -0.0131023         147.011
0.562                  -0.599179        -153.116         -54.8923        -119.199         -54.8921        -119.198       -0.0132289          146.94
0.563                  -0.614213        -153.795         -54.8134        -120.537         -54.8131        -120.536       -0.0133568         146.869
0.564                  -0.630018         -154.48         -54.7322         -121.87          -54.732         -121.87        -0.013486         146.797
0.565                  -0.646636        -155.174         -54.6487        -123.201         -54.6485          -123.2       -0.0136165         146.726
0.566                   -0.66411        -155.875          -54.563        -124.529         -54.5629        -124.528       -0.0137484         146.654
0.567                  -0.682489        -156.585         -54.4751        -125.854         -54.4749        -125.854       -0.0138817         146.582
0.568                  -0.701822        -157.302         -54.3848        -127.179         -54.3846        -127.178       -0.0140163          146.51
0.569                  -0.722163        -158.028         -54.2923        -128.502         -54.2921        -128.502       -0.0141524         146.438
0.57                   -0.743568        -158.762         -54.1974        -129.825         -54.1973        -129.825       -0.0142899         146.366
0.571                    -0.7661        -159.505         -54.1003        -131.149         -54.1001        -131.149       -0.0144289         146.294
0.572                  -0.789822        -160.256         -54.0008        -132.474         -54.0007        -132.474       -0.0145695         146.221
0.573                  -0.814803        -161.017          -53.899        -133.801         -53.8989        -133.801       -0.0147115         146.149
0.574                  -0.841117        -161.786          -53.795        -135.131         -53.7948        -135.131       -0.0148551         146.076
0.575                  -0.868841        -162.564         -53.6886        -136.464         -53.6884        -136.463       -0.0150003         146.003
0.576                   -0.89806        -163.351         -53.5799          -137.8         -53.5798          -137.8       -0.0151472          145.93
0.577                  -0.928863        -164.148         -53.4689        -139.142         -53.4688        -139.142       -0.0152957         145.857
0.578                  -0.961342        -164.953         -53.3557        -140.489         -53.3556        -140.489       -0.0154458         145.783
0.579                    -0.9956        -165.768         -53.2402        -141.843         -53.2401        -141.843       -0.0155977          145.71
0.58                    -1.03174        -166.592         -53.1225        -143.204         -53.1224        -143.204       -0.0157513         145.636
0.581                   -1.06989        -167.426         -53.0026        -144.572         -53.0025        -144.572       -0.0159066         145.562
0.582                   -1.11015        -168.269         -52.8805        -145.949         -52.8804         -145.95       -0.0160637         145.488
0.583                   -1.15266        -169.121         -52.7563        -147.336         -52.7562        -147.337       -0.0162227         145.414
0.584                   -1.19755        -169.982         -52.6299        -148.733         -52.6299        -148.734       -0.0163835          145.34
0.585                   -1.24498        -170.852         -52.5016        -150.142         -52.5015        -150.142       -0.0165462         145.266
0.586                   -1.29508        -171.731         -52.3713        -151.562         -52.3712        -151.563       -0.0167108         145.191
0.587                   -1.34803        -172.619          -52.239        -152.996         -52.2389        -152.996       -0.0168773         145.116
0.588                   -1.40399        -173.514         -52.1049        -154.443         -52.1048        -154.444       -0.0170458         145.041
0.589                   -1.46315        -174.417          -51.969        -155.906          -51.969        -155.906       -0.0172163         144.966
0.59                    -1.52568        -175.328         -51.8315        -157.384         -51.8315        -157.384       -0.0173888         144.891
0.591                   -1.59179        -176.245         -51.6924        -158.878         -51.6924        -158.879       -0.0175634         144.815
0.592                   -1.66169        -177.168         -51.5518         -160.39         -51.5518        -160.391         -0.01774          144.74
0.593                   -1.73559        -178.096           -51.41        -161.921         -51.4099        -161.922       -0.0179188         144.664
0.594                    -1.8137        -179.028         -51.2669        -163.471         -51.2669        -163.472       -0.0180997         144.588
0.595                   -1.89626        -179.963         -51.1228        -165.041         -51.1228        -165.042       -0.0182828         144.512
0.596                   -1.98351         179.101         -50.9778        -166.632         -50.9778        -166.633       -0.0184681         144.436
0.597                   -2.07568         178.164         -50.8321        -168.244         -50.8321        -168.245       -0.0186557         144.359
0.598                   -2.17301         177.229         -50.6859        -169.879         -50.6859         -169.88       -0.0188455         144.282
0.599                   -2.27574         176.298         -50.5394        -171.538         -50.5394        -171.539       -0.0190377         144.205
0.6                      -2.3841         175.373         -50.3929         -173.22         -50.3929        -173.221       -0.0192322         144.128
0.601                   -2.49834         174.457         -50.2465        -174.926         -50.2465        -174.927       -0.0194292         144.051
0.602                   -2.61865         173.552         -50.1005        -176.657         -50.1005        -176.658       -0.0196285         143.974
0.603                   -2.74524         172.662         -49.9552        -178.412         -49.9552        -178.413       -0.0198303         143.896
0.604                   -2.87829          171.79         -49.8109         179.807         -49.8109         179.806       -0.0200347         143.818
0.605                   -3.01793         170.939         -49.6678         178.001         -49.6678             178       -0.0202416          143.74
0.606                   -3.16426         170.116         -49.5262          176.17         -49.5263         176.169       -0.0204511         143.662
0.607                   -3.31734         169.323         -49.3865         174.314         -49.3866         174.313       -0.0206633         143.583
0.608                   -3.47713         168.567          -49.249         172.434          -49.249         172.433       -0.0208781         143.505
0.609                   -3.64355         167.852         -49.1139         170.531          -49.114          170.53       -0.0210958         143.426
0.61                    -3.81641         167.185         -48.9816         168.605         -48.9817         168.604       -0.0213162         143.347
0.611                   -3.99542         166.571         -48.8524         166.658         -48.8525         166.657       -0.0215396         143.267
0.612                   -4.18015         166.017         -48.7266          164.69         -48.7267         164.689       -0.0217659         143.188
0.613                   -4.37005          165.53         -48.6045         162.704         -48.6046         162.703       -0.0219952         143.108
0.614                   -4.56438         165.116         -48.4864         160.701         -48.4865           160.7       -0.0222275         143.028
0.615                   -4.76224         164.782         -48.3724         158.683         -48.3725         158.682        -0.022463         142.948
0.616                   -4.96255         164.534         -48.2628         156.653         -48.2629         156.652       -0.0227017         142.867
0.617                   -5.16402         164.377         -48.1579         154.612          -48.158         154.611       -0.0229438         142.787
0.618                   -5.36514         164.317         -48.0577         152.563         -48.0578         152.562       -0.0231892         142.706
0.619                   -5.56423         164.357         -47.9624         150.509         -47.9625         150.508        -0.023438         142.624
0.62                     -5.7594           164.5         -47.8721         148.453         -47.8722         148.452       -0.0236905         142.543
0.621                   -5.94862         164.745         -47.7867         146.397         -47.7868         146.396       -0.0239465         142.461
0.622                   -6.12975         165.092         -47.7064         144.344         -47.7065         144.343       -0.0242064         142.379
0.623                    -6.3006         165.537          -47.631         142.296         -47.6311         142.296         -0.02447         142.297
0.624                   -6.45899         166.072         -47.5604         140.258         -47.5605         140.258       -0.0247376         142.215
0.625                   -6.60285         166.689         -47.4946         138.231         -47.4947         138.231       -0.0250092         142.132
0.626                   -6.73033         167.376         -47.4333         136.218         -47.4334         136.218        -0.025285         142.049
0.627                   -6.83985          168.12         -47.3763         134.222         -47.3764         134.221       -0.0255651         141.966
0.628                   -6.93019         168.903         -47.3233         132.244         -47.3234         132.243       -0.0258495         141.882
0.629                   -7.00059         169.709         -47.2742         130.286         -47.2743         130.286       -0.0261384         141.799
0.63                    -7.05075          170.52         -47.2285         128.352         -47.2286         128.351        -0.026432         141.715
0.631                   -7.08085         171.319          -47.186         126.441         -47.1861         126.441       -0.0267302          141.63
0.632                   -7.09152         172.087         -47.1463         124.556         -47.1464         124.556       -0.0270334         141.546
0.633                   -7.08381         172.811         -47.1091         122.698         -47.1091         122.698       -0.0273414         141.461
0.634                    -7.0591         173.475         -47.0739         120.868         -47.0739         120.867       -0.0276546         141.376
0.635                   -7.01902         174.069         -47.0404         119.065         -47.0405         119.065        -0.027973          141.29
0.636                   -6.96537         174.583         -47.0083         117.291         -47.0084         117.291       -0.0282968         141.204
0.637                   -6.90003          175.01         -46.9772         115.546         -46.9772         115.546       -0.0286261         141.118
0.638                    -6.8249         175.346         -46.9467          113.83         -46.9467          113.83       -0.0289609         141.032
0.639                   -6.74182         175.589         -46.9165         112.142         -46.9165         112.142       -0.0293015         140.945
0.64                    -6.65253         175.737         -46.8862         110.482         -46.8862         110.482        -0.029648         140.858
0.641                   -6.55863         175.792         -46.8556          108.85         -46.8556          108.85       -0.0300005         140.771
0.642                   -6.46159         175.755         -46.8243         107.244         -46.8243         107.244       -0.0303591         140.683
0.643                   -6.36269         175.629         -46.7921         105.665         -46.7921         105.665       -0.0307241         140.595
0.644                   -6.26308         175.417         -46.7587          104.11         -46.7587          104.11       -0.0310954         140.507
0.645                   -6.16373         175.124         -46.7239          102.58         -46.7238          102.58       -0.0314733         140.419
0.646                   -6.06547         174.753         -46.6873         101.072         -46.6873         101.072       -0.0318578          140.33
0.647                     -5.969         174.309          -46.649         99.5856         -46.6489         99.5854       -0.0322492          140.24
0.648                   -5.87491         173.796         -46.6085         98.1196         -46.6085         98.1194       -0.0326476         140.151
0.649                   -5.78366         173.218         -46.5659         96.6726         -46.5658         96.6724       -0.0330531         140.061
0.65                    -5.69563         172.578         -46.5209         95.2432         -46.5208          95.243       -0.0334659          139.97
0.651                   -5.61114         171.881         -46.4734         93.8301         -46.4733         93.8299        -0.033886         139.879
0.652                    -5.5304          171.13         -46.4233          92.432         -46.4232         92.4318       -0.0343137         139.788
0.653                   -5.45362         170.328         -46.3705         91.0474         -46.3704         91.0472       -0.0347491         139.697
0.654                    -5.3809         169.478         -46.3149          89.675         -46.3149         89.6748       -0.0351924         139.605
0.655                   -5.31236         168.583         -46.2565         88.3135         -46.2565         88.3133       -0.0356437         139.513
0.656                   -5.24805         167.646         -46.1952         86.9615         -46.1951         86.9613       -0.0361031          139.42
0.657                   -5.18801         166.668         -46.1309         85.6177         -46.1309         85.6175       -0.0365709         139.327
0.658                   -5.13225         165.652         -46.0637         84.2808         -46.0637         84.2807       -0.0370472         139.234
0.659                   -5.08079         164.599         -45.9936         82.9496         -45.9936         82.9494       -0.0375321          139.14
0.66                    -5.03361         163.511         -45.9204         81.6229         -45.9204         81.6227       -0.0380259         139.046
0.661                   -4.99071         162.389         -45.8443         80.2993         -45.8443         80.2991       -0.0385286         138.951
0.662                   -4.95205         161.234         -45.7653         78.9778         -45.7652         78.9777       -0.0390406         138.856
0.663                   -4.91762         160.048         -45.6833         77.6573         -45.6832         77.6571       -0.0395619         138.761
0.664                    -4.8874         158.831         -45.5984         76.3365         -45.5983         76.3364       -0.0400928         138.665
0.665                   -4.86136         157.584         -45.5106         75.0146         -45.5106         75.0145       -0.0406334         138.568
0.666                   -4.83949         156.308           -45.42         73.6904           -45.42         73.6903       -0.0411839         138.471
0.667                   -4.82178         155.002         -45.3266          72.363         -45.3266         72.3629       -0.0417446         138.374
0.668                   -4.80821         153.668         -45.2305         71.0314         -45.2305         71.0313       -0.0423156         138.276
0.669                   -4.79878         152.305         -45.1318         69.6946         -45.1317         69.6946       -0.0428971         138.178
0.67                     -4.7935         150.914         -45.0304         68.3519         -45.0304         68.3519       -0.0434895          138.08
0.671                   -4.79236         149.495         -44.9266         67.0023         -44.9266         67.0023       -0.0440928          137.98
0.672                    -4.7954         148.047         -44.8203          65.645         -44.8202         65.6451       -0.0447073         137.881
0.673                   -4.80263         146.571         -44.7116         64.2793         -44.7116         64.2794       -0.0453333         137.781
0.674                    -4.8141         145.066         -44.6007         62.9044         -44.6006         62.9045        -0.045971          137.68
0.675                   -4.82983         143.531         -44.4875         61.5196         -44.4875         61.5197       -0.0466205         137.579
0.676                   -4.84989         141.967         -44.3723         60.1241         -44.3722         60.1242       -0.0472823         137.477
0.677                   -4.87434         140.374          -44.255         58.7174          -44.255         58.7175       -0.0479565         137.375
0.678                   -4.90324         138.749         -44.1358         57.2988         -44.1358         57.2989       -0.0486434         137.272
0.679                   -4.93669         137.094         -44.0148         55.8677         -44.0148         55.8678       -0.0493433         137.169
0.68                    -4.97476         135.406         -43.8921         54.4235         -43.8921         54.4237       -0.0500565         137.065
0.681                   -5.01756         133.687         -43.7678         52.9658         -43.7678          52.966       -0.0507832          136.96
0.682                    -5.0652         131.933          -43.642          51.494          -43.642         51.4942       -0.0515238         136.855
0.683                   -5.11782         130.146         -43.5148         50.0076         -43.5148         50.0078       -0.0522785          136.75
0.684                   -5.17553         128.324         -43.3864         48.5063         -43.3864         48.5065       -0.0530477         136.644
0.685                    -5.2385         126.465         -43.2568         46.9895         -43.2568         46.9897       -0.0538316         136.537
0.686                   -5.30687          124.57         -43.1262          45.457         -43.1261         45.4572       -0.0546307         136.429
0.687                   -5.38082         122.636         -42.9947         43.9084         -42.9946         43.9086       -0.0554453         136.321
0.688                   -5.46052         120.662         -42.8624         42.3435         -42.8623         42.3436       -0.0562756         136.213
0.689                   -5.54617         118.648         -42.7294         40.7619         -42.7294          40.762       -0.0571221         136.103
0.69                    -5.63797         116.592          -42.596         39.1634         -42.5959         39.1636       -0.0579852         135.993
0.691                   -5.73615         114.492         -42.4621         37.5479         -42.4621         37.5481       -0.0588652         135.883
0.692                   -5.84091         112.347         -42.3281         35.9153          -42.328         35.9154       -0.0597625         135.772
0.693                   -5.95251         110.155         -42.1939         34.2654         -42.1938         34.2655       -0.0606775          135.66
0.694                    -6.0712         107.915         -42.0597         32.5982         -42.0597         32.5983       -0.0616107         135.547
0.695                   -6.19721         105.623         -41.9258         30.9137         -41.9257         30.9138       -0.0625624         135.433
0.696                   -6.33083          103.28         -41.7921         29.2121         -41.7921         29.2122       -0.0635332         135.319