! TOUCHSTONE file generated by CST MICROWAVE STUDIO
! Date and time: Fri Dec 11 14:18:19 2020
! Project name: Scenario_1_Planar_Body_Tissue_Out_of_Line_v2.cst
! Parameters = {dy1=328.7; L_HA=400; Ltissue=700; MT=2.54; Rad_Dielectric=30; Rad_Lower=7.3; Rad_Upper=30; Wtissue=700; a_HA=580; a_WG=246; b_HA=500; b_WG=121; c_HA=0; c_WG=187; d_feed=85; dx1=520; h_feed=15; h_lower=18; h_upper=40; hfat=3; hgap=25; hmuscle=50; hskin=1.5}
! Header version: 2018
! Port assignment regex: !\s*Touchstone port\s*([0-9]+)\s*=\s*(CST MWS port|CST DS port)\s*([0-9]+|Zmin|Zmax)\s*\(\"(.*)\"\)(\s*mode\s*([0-9]+))?.*
! Touchstone port assignment:
! Touchstone port 1 = CST MWS port 1 ("")
! Touchstone port 2 = CST MWS port 2 ("")
# GHz S DB R 50
0.5                    -0.103121        -121.954         -65.4962        -87.9637         -65.4923        -87.9535      -0.00738909         151.154
0.501                  -0.108784        -122.417         -65.2607        -89.0328          -65.257        -89.0231      -0.00745929         151.089
0.502                  -0.114698        -122.884         -65.0234        -90.1247         -65.0198        -90.1156      -0.00753065         151.023
0.503                  -0.120873        -123.352         -64.7842        -91.2401         -64.7807        -91.2314      -0.00760316         150.958
0.504                  -0.127321        -123.824         -64.5432        -92.3795         -64.5398        -92.3712      -0.00767682         150.893
0.505                  -0.134052        -124.297         -64.3002        -93.5434         -64.2969        -93.5356      -0.00775162         150.827
0.506                  -0.141079        -124.773         -64.0552        -94.7326         -64.0521        -94.7252      -0.00782757         150.761
0.507                  -0.148414        -125.252         -63.8084        -95.9477         -63.8053        -95.9407      -0.00790465         150.696
0.508                  -0.156071        -125.734         -63.5596        -97.1893         -63.5567        -97.1828      -0.00798288          150.63
0.509                  -0.164066        -126.218         -63.3088        -98.4583          -63.306        -98.4522      -0.00806223         150.564
0.51                   -0.172414        -126.705         -63.0562        -99.7554         -63.0535        -99.7497      -0.00814272         150.498
0.511                  -0.181133        -127.194         -62.8016        -101.081          -62.799        -101.076      -0.00822433         150.432
0.512                   -0.19024        -127.686         -62.5451        -102.437         -62.5426        -102.432      -0.00830705         150.366
0.513                  -0.199755        -128.181         -62.2867        -103.824         -62.2843        -103.819       -0.0083909           150.3
0.514                  -0.209699        -128.679         -62.0265        -105.242         -62.0242        -105.237      -0.00847585         150.234
0.515                  -0.220095        -129.179         -61.7644        -106.692         -61.7623        -106.688      -0.00856191         150.167
0.516                  -0.230966        -129.683         -61.5006        -108.176         -61.4986        -108.173      -0.00864907         150.101
0.517                  -0.242339        -130.189         -61.2351        -109.695         -61.2332        -109.692      -0.00873732         150.034
0.518                  -0.254239        -130.697          -60.968        -111.249         -60.9661        -111.246      -0.00882665         149.968
0.519                  -0.266698        -131.209         -60.6993         -112.84         -60.6975        -112.837      -0.00891706         149.901
0.52                   -0.279745        -131.723         -60.4291        -114.469         -60.4274        -114.466      -0.00900855         149.834
0.521                  -0.293414         -132.24         -60.1576        -116.137          -60.156        -116.135       -0.0091011         149.768
0.522                  -0.307739        -132.759         -59.8848        -117.845         -59.8833        -117.843      -0.00919471         149.701
0.523                  -0.322759         -133.28          -59.611        -119.594         -59.6096        -119.593      -0.00928936         149.634
0.524                  -0.338512        -133.805         -59.3363        -121.386          -59.335        -121.385      -0.00938506         149.567
0.525                  -0.355039        -134.331         -59.0608        -123.222         -59.0596        -123.221      -0.00948178           149.5
0.526                  -0.372384        -134.859         -58.7848        -125.103         -58.7837        -125.102      -0.00957953         149.432
0.527                  -0.390591        -135.389         -58.5085        -127.031         -58.5075         -127.03      -0.00967829         149.365
0.528                  -0.409706         -135.92         -58.2321        -129.005         -58.2312        -129.005      -0.00977804         149.298
0.529                  -0.429777        -136.453          -57.956        -131.028         -57.9552        -131.028      -0.00987879          149.23
0.53                   -0.450852        -136.987         -57.6805        -133.101         -57.6797        -133.101      -0.00998051         149.162
0.531                  -0.472978        -137.521         -57.4058        -135.224         -57.4051        -135.224       -0.0100832         149.095
0.532                  -0.496201        -138.056         -57.1323        -137.399         -57.1317        -137.399       -0.0101868         149.027
0.533                  -0.520567        -138.589         -56.8605        -139.626         -56.8599        -139.626       -0.0102914         148.959
0.534                  -0.546115        -139.122         -56.5907        -141.905         -56.5902        -141.905       -0.0103969         148.891
0.535                   -0.57288        -139.653         -56.3234        -144.237          -56.323        -144.237       -0.0105034         148.823
0.536                   -0.60089        -140.181          -56.059        -146.623         -56.0587        -146.623       -0.0106107         148.755
0.537                  -0.630161        -140.706         -55.7982        -149.061         -55.7979        -149.061       -0.0107189         148.687
0.538                  -0.660696        -141.226         -55.5413        -151.552         -55.5411        -151.552        -0.010828         148.618
0.539                  -0.692479         -141.74         -55.2889        -154.094         -55.2888        -154.094       -0.0109379          148.55
0.54                   -0.725476        -142.248         -55.0416        -156.687         -55.0415        -156.687       -0.0110487         148.481
0.541                  -0.759623        -142.748         -54.7999        -159.329         -54.7999        -159.329       -0.0111603         148.413
0.542                  -0.794827        -143.239         -54.5644        -162.019         -54.5644        -162.019       -0.0112728         148.344
0.543                   -0.83096        -143.718         -54.3355        -164.754         -54.3356        -164.753        -0.011386         148.275
0.544                  -0.867853        -144.186         -54.1139        -167.531          -54.114         -167.53          -0.0115         148.206
0.545                  -0.905292        -144.641            -53.9        -170.347         -53.9002        -170.347       -0.0116147         148.137
0.546                  -0.943016        -145.081         -53.6943        -173.199         -53.6945        -173.198       -0.0117302         148.068
0.547                  -0.980717        -145.506         -53.4972        -176.083         -53.4974        -176.082       -0.0118464         147.999
0.548                   -1.01804        -145.915          -53.309        -178.994         -53.3092        -178.993       -0.0119634         147.929
0.549                   -1.05459        -146.308         -53.1301         178.071         -53.1303         178.072        -0.012081          147.86
0.55                    -1.08995        -146.684         -52.9607         175.118         -52.9609         175.119       -0.0121994          147.79
0.551                   -1.12365        -147.044         -52.8008         172.152         -52.8011         172.153       -0.0123184         147.721
0.552                   -1.15526         -147.39         -52.6507         169.177          -52.651         169.179       -0.0124381         147.651
0.553                   -1.18434        -147.723         -52.5103           166.2         -52.5105         166.202       -0.0125584         147.581
0.554                   -1.21048        -148.045         -52.3794         163.224         -52.3797         163.226       -0.0126794         147.511
0.555                   -1.23335         -148.36          -52.258         160.255         -52.2582         160.257        -0.012801         147.441
0.556                    -1.2527        -148.671         -52.1457         157.297          -52.146         157.299       -0.0129233          147.37
0.557                   -1.26835        -148.981         -52.0424         154.355         -52.0426         154.358       -0.0130462           147.3
0.558                   -1.28024        -149.294         -51.9475         151.434         -51.9477         151.436       -0.0131698         147.229
0.559                   -1.28843        -149.615         -51.8606         148.536         -51.8608         148.539        -0.013294         147.159
0.56                    -1.29307        -149.946         -51.7814         145.666         -51.7815         145.668       -0.0134188         147.088
0.561                   -1.29441        -150.291         -51.7092         142.826         -51.7093         142.829       -0.0135444         147.017
0.562                   -1.29276        -150.653         -51.6435         140.019         -51.6437         140.022       -0.0136706         146.946
0.563                   -1.28853        -151.035         -51.5839         137.247          -51.584          137.25       -0.0137976         146.875
0.564                   -1.28212        -151.438         -51.5296         134.512         -51.5297         134.515       -0.0139253         146.804
0.565                   -1.27399        -151.864         -51.4802         131.816         -51.4803         131.818       -0.0140538         146.732
0.566                   -1.26459        -152.314         -51.4351         129.158         -51.4352         129.161       -0.0141832         146.661
0.567                   -1.25432        -152.787         -51.3938          126.54         -51.3938         126.543       -0.0143134         146.589
0.568                    -1.2436        -153.284         -51.3557         123.963         -51.3557         123.965       -0.0144445         146.517
0.569                    -1.2328        -153.805         -51.3203         121.425         -51.3202         121.427       -0.0145766         146.445
0.57                    -1.22222        -154.348         -51.2871         118.927         -51.2871         118.929       -0.0147098         146.373
0.571                   -1.21216        -154.913         -51.2557         116.469         -51.2557         116.471       -0.0148441         146.301
0.572                   -1.20286        -155.498         -51.2257         114.049         -51.2256         114.051       -0.0149797         146.229
0.573                   -1.19452        -156.103         -51.1966         111.666         -51.1965         111.668       -0.0151165         146.156
0.574                   -1.18729        -156.727         -51.1681         109.321          -51.168         109.322       -0.0152547         146.083
0.575                   -1.18132        -157.368         -51.1398          107.01         -51.1397         107.012       -0.0153944         146.011
0.576                    -1.1767        -158.025         -51.1114         104.735         -51.1113         104.736       -0.0155357         145.938
0.577                   -1.17352        -158.698         -51.0827         102.492         -51.0826         102.493       -0.0156787         145.865
0.578                   -1.17183        -159.385         -51.0534          100.28         -51.0532         100.282       -0.0158235         145.791
0.579                   -1.17169        -160.086         -51.0232         98.0993          -51.023         98.1007       -0.0159701         145.718
0.58                    -1.17311          -160.8         -50.9919         95.9471         -50.9917         95.9483       -0.0161188         145.644
0.581                   -1.17613        -161.526         -50.9593         93.8221         -50.9591         93.8232       -0.0162695         145.571
0.582                   -1.18076        -162.264         -50.9253         91.7231         -50.9251         91.7241       -0.0164225         145.497
0.583                     -1.187        -163.013         -50.8898         89.6485         -50.8896         89.6494       -0.0165777         145.423
0.584                   -1.19487        -163.773         -50.8525         87.5969         -50.8523         87.5976       -0.0167353         145.348
0.585                   -1.20437        -164.543         -50.8134         85.5668         -50.8132         85.5675       -0.0168954         145.274
0.586                   -1.21551        -165.322         -50.7724         83.5569         -50.7721         83.5574       -0.0170581         145.199
0.587                   -1.22829        -166.112         -50.7293         81.5657         -50.7291         81.5662       -0.0172234         145.125
0.588                   -1.24271        -166.911         -50.6842         79.5919          -50.684         79.5923       -0.0173913          145.05
0.589                    -1.2588         -167.72          -50.637         77.6342         -50.6367         77.6345        -0.017562         144.975
0.59                    -1.27656        -168.538         -50.5875         75.6913         -50.5873         75.6915       -0.0177355         144.899
0.591                   -1.29601        -169.365         -50.5359         73.7619         -50.5357          73.762       -0.0179118         144.824
0.592                   -1.31717        -170.201          -50.482         71.8446         -50.4818         71.8447        -0.018091         144.748
0.593                   -1.34007        -171.046         -50.4258         69.9384         -50.4256         69.9384        -0.018273         144.673
0.594                   -1.36473          -171.9         -50.3674         68.0421         -50.3672          68.042       -0.0184579         144.597
0.595                   -1.39118        -172.763         -50.3067         66.1544         -50.3065         66.1542       -0.0186458         144.521
0.596                   -1.41948        -173.635         -50.2437         64.2742         -50.2435          64.274       -0.0188365         144.444
0.597                   -1.44966        -174.516         -50.1785         62.4005         -50.1783         62.4003       -0.0190301         144.368
0.598                   -1.48176        -175.406         -50.1111         60.5322         -50.1109         60.5319       -0.0192266         144.291
0.599                   -1.51585        -176.305         -50.0414         58.6681         -50.0412         58.6678        -0.019426         144.214
0.6                     -1.55199        -177.213         -49.9696         56.8074         -49.9694          56.807       -0.0196283         144.137
0.601                   -1.59024        -178.131         -49.8957         54.9489         -49.8955         54.9485       -0.0198334          144.06
0.602                   -1.63067        -179.057         -49.8196         53.0918         -49.8195         53.0913       -0.0200413         143.983
0.603                   -1.67336        -179.992         -49.7416         51.2351         -49.7414         51.2346        -0.020252         143.905
0.604                    -1.7184         179.063         -49.6615         49.3778         -49.6614         49.3772       -0.0204655         143.827
0.605                   -1.76587          178.11         -49.5795          47.519         -49.5794         47.5185       -0.0206818         143.749
0.606                   -1.81587         177.147         -49.4957          45.658         -49.4956         45.6574       -0.0209009         143.671
0.607                    -1.8685         176.176         -49.4101         43.7938           -49.41         43.7932       -0.0211227         143.593
0.608                   -1.92388         175.196         -49.3228         41.9256         -49.3227          41.925       -0.0213473         143.514
0.609                   -1.98212         174.207         -49.2339         40.0527         -49.2338          40.052       -0.0215746         143.436
0.61                    -2.04334          173.21         -49.1434         38.1741         -49.1433         38.1735       -0.0218046         143.357
0.611                   -2.10768         172.204         -49.0515         36.2893         -49.0514         36.2887       -0.0220374         143.277
0.612                   -2.17527         171.191         -48.9582         34.3975         -48.9581         34.3969       -0.0222729         143.198
0.613                   -2.24626          170.17         -48.8637          32.498         -48.8636         32.4974       -0.0225112         143.118
0.614                   -2.32079         169.141          -48.768         30.5902         -48.7679         30.5896       -0.0227523         143.038
0.615                   -2.39904         168.106         -48.6713         28.6734         -48.6713         28.6728       -0.0229961         142.958
0.616                   -2.48115         167.064         -48.5737         26.7471         -48.5737         26.7465       -0.0232428         142.878
0.617                   -2.56731         166.017         -48.4753         24.8107         -48.4753         24.8101       -0.0234924         142.797
0.618                    -2.6577         164.964         -48.3762         22.8637         -48.3762         22.8631       -0.0237448         142.717
0.619                   -2.75249         163.908         -48.2767         20.9056         -48.2766         20.9051       -0.0240002         142.636
0.62                    -2.85188         162.848         -48.1767         18.9361         -48.1766         18.9356       -0.0242585         142.554
0.621                   -2.95606         161.785         -48.0764         16.9548         -48.0764         16.9543       -0.0245199         142.473
0.622                   -3.06523         160.722         -47.9761         14.9613         -47.9761         14.9609       -0.0247844         142.391
0.623                   -3.17959         159.659         -47.8758         12.9554         -47.8758          12.955        -0.025052         142.309
0.624                   -3.29935         158.597         -47.7757         10.9369         -47.7757         10.9365       -0.0253228         142.227
0.625                   -3.42472         157.539         -47.6759         8.90569         -47.6759         8.90534       -0.0255969         142.145
0.626                   -3.55588         156.485         -47.5767         6.86165         -47.5767         6.86133       -0.0258744         142.062
0.627                   -3.69305         155.439         -47.4781         4.80479         -47.4781          4.8045       -0.0261552         141.979
0.628                   -3.83642         154.401         -47.3804         2.73518         -47.3804         2.73493       -0.0264396         141.895
0.629                   -3.98617         153.376         -47.2836        0.652963         -47.2836        0.652744       -0.0267276         141.812
0.63                    -4.14249         152.364         -47.1881        -1.44165         -47.1881        -1.44183       -0.0270193         141.728
0.631                   -4.30552          151.37         -47.0938        -3.54835         -47.0938         -3.5485       -0.0273147         141.644
0.632                   -4.47543         150.395         -47.0011        -5.66678         -47.0011        -5.66689        -0.027614          141.56
0.633                   -4.65231         149.445           -46.91        -7.79646           -46.91        -7.79655       -0.0279173         141.475
0.634                   -4.83627         148.522         -46.8207        -9.93688         -46.8207        -9.93693       -0.0282247          141.39
0.635                   -5.02735          147.63         -46.7333        -12.0874         -46.7333        -12.0874       -0.0285363         141.305
0.636                   -5.22558         146.774         -46.6481        -14.2473         -46.6481        -14.2473       -0.0288522         141.219
0.637                   -5.43092         145.958          -46.565        -16.4159          -46.565        -16.4158       -0.0291725         141.133
0.638                   -5.64326         145.187         -46.4844        -18.5922         -46.4844        -18.5921       -0.0294974         141.047
0.639                   -5.86246         144.467         -46.4062        -20.7754         -46.4062        -20.7753       -0.0298269         140.961
0.64                    -6.08826         143.802         -46.3306        -22.9644         -46.3306        -22.9643       -0.0301613         140.874
0.641                   -6.32035         143.199         -46.2577        -25.1582         -46.2577        -25.1581       -0.0305006         140.787
0.642                   -6.55827         142.663         -46.1875        -27.3558         -46.1875        -27.3556       -0.0308449         140.699
0.643                   -6.80148           142.2         -46.1203        -29.5558         -46.1202        -29.5557       -0.0311945         140.612
0.644                   -7.04931         141.817         -46.0559        -31.7572         -46.0559         -31.757       -0.0315494         140.524
0.645                   -7.30092          141.52         -45.9944        -33.9587         -45.9944        -33.9585       -0.0319099         140.435
0.646                   -7.55533         141.314          -45.936         -36.159          -45.936        -36.1588        -0.032276         140.346
0.647                   -7.81139         141.204         -45.8805        -38.3568         -45.8805        -38.3566       -0.0326479         140.257
0.648                   -8.06777         141.197         -45.8281        -40.5509          -45.828        -40.5507       -0.0330258         140.168
0.649                   -8.32297         141.296         -45.7786          -42.74         -45.7785        -42.7398       -0.0334099         140.078
0.65                    -8.57528         141.504          -45.732        -44.9228          -45.732        -44.9226       -0.0338003         139.988
0.651                   -8.82287         141.824         -45.6883         -47.098         -45.6883        -47.0979       -0.0341971         139.897
0.652                   -9.06371         142.256         -45.6475        -49.2645         -45.6475        -49.2643       -0.0346007         139.807
0.653                   -9.29569         142.798         -45.6095         -51.421         -45.6094        -51.4208        -0.035011         139.715
0.654                   -9.51664         143.446         -45.5741        -53.5663          -45.574        -53.5662       -0.0354284         139.624
0.655                   -9.72435         144.195         -45.5412        -55.6995         -45.5412        -55.6994       -0.0358531         139.532
0.656                   -9.91672         145.036         -45.5109        -57.8195         -45.5108        -57.8194       -0.0362851         139.439
0.657                   -10.0918         145.958         -45.4828        -59.9252         -45.4828        -59.9252       -0.0367248         139.346
0.658                   -10.2478         146.947          -45.457        -62.0159         -45.4569        -62.0159       -0.0371723         139.253
0.659                   -10.3833         147.988         -45.4332        -64.0906         -45.4332        -64.0906       -0.0376278         139.159
0.66                    -10.4974         149.064         -45.4114        -66.1487         -45.4113        -66.1487       -0.0380916         139.065
0.661                   -10.5894         150.156         -45.3912        -68.1893         -45.3912        -68.1894       -0.0385638         138.971
0.662                   -10.6593         151.246         -45.3727         -70.212         -45.3727        -70.2121       -0.0390448         138.876
0.663                   -10.7074         152.315         -45.3557        -72.2162         -45.3556        -72.2163       -0.0395346          138.78
0.664                   -10.7345         153.347         -45.3398        -74.2015         -45.3398        -74.2016       -0.0400336         138.685
0.665                   -10.7419         154.325         -45.3251        -76.1674         -45.3251        -76.1676       -0.0405419         138.588
0.666                    -10.731         155.236         -45.3113        -78.1138         -45.3113        -78.1139       -0.0410599         138.492
0.667                   -10.7036         156.067         -45.2983        -80.0403         -45.2982        -80.0405       -0.0415878         138.394
0.668                   -10.6617          156.81         -45.2858        -81.9468         -45.2858        -81.9471       -0.0421257         138.297
0.669                   -10.6072         157.459         -45.2738        -83.8334         -45.2737        -83.8336       -0.0426741         138.199
0.67                    -10.5421         158.007          -45.262        -85.6998          -45.262           -85.7       -0.0432331           138.1
0.671                   -10.4683         158.453         -45.2503        -87.5462         -45.2503        -87.5465       -0.0438031         138.001
0.672                   -10.3876         158.795         -45.2386        -89.3728         -45.2385         -89.373       -0.0443842         137.901
0.673                   -10.3018         159.035         -45.2266        -91.1795         -45.2265        -91.1798       -0.0449769         137.801
0.674                   -10.2125         159.173         -45.2142        -92.9668         -45.2142        -92.9671       -0.0455813         137.701
0.675                   -10.1209         159.213         -45.2013        -94.7348         -45.2013        -94.7351       -0.0461978           137.6
0.676                   -10.0284         159.158         -45.1878        -96.4839         -45.1877        -96.4842       -0.0468267         137.498
0.677                   -9.93605         159.012         -45.1734        -98.2143         -45.1734        -98.2146       -0.0474682         137.396
0.678                   -9.84476         158.778         -45.1581        -99.9266          -45.158        -99.9269       -0.0481228         137.293
0.679                   -9.75535         158.461         -45.1417        -101.621         -45.1416        -101.621       -0.0487907          137.19
0.68                    -9.66851         158.065         -45.1241        -103.298          -45.124        -103.299       -0.0494722         137.086
0.681                   -9.58483         157.594         -45.1051        -104.959         -45.1051        -104.959       -0.0501678         136.981
0.682                    -9.5048         157.053         -45.0848        -106.603         -45.0847        -106.603       -0.0508777         136.876
0.683                   -9.42882         156.444         -45.0629        -108.231         -45.0629        -108.231       -0.0516023         136.771
0.684                   -9.35723         155.772         -45.0393        -109.844         -45.0393        -109.844        -0.052342         136.665
0.685                   -9.29031         155.041          -45.014        -111.443          -45.014        -111.443       -0.0530972         136.558
0.686                    -9.2283         154.252         -44.9869        -113.027         -44.9869        -113.028       -0.0538681          136.45
0.687                   -9.17139         153.409         -44.9578        -114.599         -44.9578        -114.599       -0.0546553         136.342
0.688                   -9.11973         152.516         -44.9268        -116.157         -44.9268        -116.158       -0.0554592         136.234
0.689                   -9.07345         151.573         -44.8936        -117.704         -44.8936        -117.704         -0.05628         136.124
0.69                    -9.03268         150.584         -44.8583         -119.24         -44.8583         -119.24       -0.0571184         136.014
0.691                    -8.9975          149.55         -44.8208        -120.764         -44.8207        -120.764       -0.0579746         135.904
0.692                   -8.96799         148.474         -44.7809        -122.279         -44.7809        -122.279       -0.0588492         135.792
0.693                   -8.94424         147.356         -44.7387        -123.785         -44.7387        -123.785       -0.0597426          135.68
0.694                   -8.92631         146.199         -44.6941        -125.282         -44.6941        -125.282       -0.0606552         135.567
0.695                   -8.91427         145.003         -44.6471        -126.772         -44.6471        -126.772       -0.0615876         135.454
0.696                    -8.9082         143.769         -44.5975        -128.254         -44.5975        -128.254       -0.0625403          135.34