! TOUCHSTONE file generated by CST MICROWAVE STUDIO
! Date and time: Sat Nov 14 20:03:48 2020
! Project name: Scenario_1_Planar_Body_Tissue_Out_of_Line.cst
! Parameters = {dy1=-328.7; L_HA=400; Ltissue=700; MT=2.54; Rad_Dielectric=30; Rad_Lower=7.3; Rad_Upper=30; Wtissue=700; a_HA=580; a_WG=246; b_HA=500; b_WG=121; c_HA=0; c_WG=187; d_feed=85; dx1=693; h_feed=15; h_lower=18; h_upper=40; hfat=3; hgap=25; hmuscle=50; hskin=1.5}
! Header version: 2018
! Port assignment regex: !\s*Touchstone port\s*([0-9]+)\s*=\s*(CST MWS port|CST DS port)\s*([0-9]+|Zmin|Zmax)\s*\(\"(.*)\"\)(\s*mode\s*([0-9]+))?.*
! Touchstone port assignment:
! Touchstone port 1 = CST MWS port 1 ("")
! Touchstone port 2 = CST MWS port 2 ("")
# GHz S DB R 50
0.5                    -0.171926        -121.675         -63.5311         166.511         -63.5302         166.512       -0.0077662         151.155
0.501                  -0.175498        -122.095         -63.4287         164.372          -63.428         164.373      -0.00782547          151.09
0.502                  -0.179096        -122.518         -63.3263         162.236         -63.3257         162.238      -0.00788531         151.025
0.503                  -0.182725        -122.943         -63.2236         160.106         -63.2232         160.109      -0.00794573          150.96
0.504                  -0.186388        -123.371         -63.1209         157.982         -63.1207         157.985      -0.00800675         150.894
0.505                  -0.190089        -123.801         -63.0182         155.863          -63.018         155.867      -0.00806838         150.829
0.506                  -0.193833        -124.234         -62.9154         153.752         -62.9152         153.756      -0.00813063         150.763
0.507                  -0.197623         -124.67         -62.8125         151.648         -62.8124         151.653      -0.00819352         150.698
0.508                  -0.201465        -125.109         -62.7096         149.552         -62.7096         149.557      -0.00825707         150.632
0.509                  -0.205365        -125.551         -62.6066         147.464         -62.6067          147.47      -0.00832129         150.566
0.51                   -0.209328        -125.996         -62.5036         145.386         -62.5037         145.391      -0.00838619           150.5
0.511                  -0.213359        -126.444         -62.4006         143.317         -62.4006         143.322       -0.0084518         150.435
0.512                  -0.217467        -126.895         -62.2974         141.258         -62.2975         141.263      -0.00851814         150.368
0.513                  -0.221656        -127.349         -62.1942         139.209         -62.1942         139.214       -0.0085852         150.302
0.514                  -0.225936        -127.807         -62.0908         137.171         -62.0908         137.176      -0.00865303         150.236
0.515                  -0.230314        -128.268         -61.9872         135.144         -61.9873         135.149      -0.00872163          150.17
0.516                  -0.234798        -128.732         -61.8834         133.128         -61.8834         133.133      -0.00879101         150.104
0.517                  -0.239398          -129.2         -61.7793         131.124         -61.7794         131.129      -0.00886121         150.037
0.518                  -0.244122        -129.672          -61.675         129.132          -61.675         129.137      -0.00893224         149.971
0.519                  -0.248982        -130.147         -61.5702         127.152         -61.5702         127.157      -0.00900412         149.904
0.52                   -0.253988        -130.626          -61.465         125.185          -61.465         125.189      -0.00907687         149.837
0.521                  -0.259152        -131.109         -61.3593          123.23         -61.3592         123.234       -0.0091505          149.77
0.522                  -0.264486        -131.595          -61.253         121.288         -61.2529         121.291      -0.00922505         149.704
0.523                  -0.270003        -132.086         -61.1461         119.358         -61.1459         119.361      -0.00930053         149.637
0.524                  -0.275718        -132.581         -61.0384         117.442         -61.0382         117.444      -0.00937696         149.569
0.525                  -0.281645         -133.08         -60.9299         115.538         -60.9297          115.54      -0.00945437         149.502
0.526                  -0.287801        -133.583         -60.8204         113.646         -60.8202         113.648      -0.00953277         149.435
0.527                  -0.294201        -134.091           -60.71         111.768         -60.7097         111.769       -0.0096122         149.368
0.528                  -0.300865        -134.603         -60.5984         109.901         -60.5982         109.902      -0.00969267           149.3
0.529                  -0.307811        -135.119         -60.4856         108.047         -60.4854         108.047      -0.00977422         149.233
0.53                    -0.31506         -135.64         -60.3715         106.205         -60.3713         106.205      -0.00985685         149.165
0.531                  -0.322633        -136.166          -60.256         104.374         -60.2557         104.373      -0.00994061         149.097
0.532                  -0.330554        -136.697          -60.139         102.554         -60.1387         102.554       -0.0100255          149.03
0.533                  -0.338848        -137.232         -60.0203         100.746         -60.0201         100.744       -0.0101116         148.962
0.534                  -0.347539        -137.773         -59.8999          98.947         -59.8997         98.9456       -0.0101988         148.894
0.535                  -0.356658        -138.318         -59.7777         97.1583         -59.7774         97.1566       -0.0102873         148.825
0.536                  -0.366232        -138.868         -59.6535         95.3788         -59.6532         95.3767       -0.0103771         148.757
0.537                  -0.376294        -139.424         -59.5272         93.6077          -59.527         93.6054       -0.0104681         148.689
0.538                  -0.386878        -139.985         -59.3988         91.8445         -59.3986         91.8419       -0.0105604          148.62
0.539                  -0.398019        -140.551         -59.2681         90.0882         -59.2679         90.0855       -0.0106541         148.552
0.54                   -0.409754        -141.123          -59.135         88.3381         -59.1348         88.3352       -0.0107491         148.483
0.541                  -0.422125          -141.7         -58.9994         86.5932         -58.9992         86.5902       -0.0108455         148.414
0.542                  -0.435175        -142.282         -58.8612         84.8525         -58.8611         84.8494       -0.0109434         148.346
0.543                  -0.448948         -142.87         -58.7204         83.1151         -58.7203         83.1119       -0.0110427         148.277
0.544                  -0.463494        -143.463         -58.5768         81.3797         -58.5767         81.3765       -0.0111434         148.208
0.545                  -0.478863        -144.062         -58.4303         79.6453         -58.4303          79.642       -0.0112457         148.138
0.546                  -0.495109        -144.666          -58.281         77.9104         -58.2809         77.9072       -0.0113495         148.069
0.547                   -0.51229        -145.276         -58.1286         76.1739         -58.1286         76.1708       -0.0114549             148
0.548                  -0.530467        -145.891         -57.9732         74.4343         -57.9733         74.4312       -0.0115619          147.93
0.549                  -0.549702        -146.511         -57.8147         72.6901         -57.8148         72.6872       -0.0116705          147.86
0.55                   -0.570063        -147.137         -57.6531         70.9399         -57.6532         70.9371       -0.0117808         147.791
0.551                  -0.591621        -147.768         -57.4883         69.1819         -57.4884         69.1793       -0.0118927         147.721
0.552                  -0.614447        -148.403         -57.3204         67.4147         -57.3205         67.4123       -0.0120064         147.651
0.553                   -0.63862        -149.043         -57.1493         65.6364         -57.1494         65.6341       -0.0121218         147.581
0.554                  -0.664217        -149.688          -56.975         63.8452         -56.9752         63.8432       -0.0122389         147.511
0.555                  -0.691322        -150.337         -56.7977         62.0394         -56.7978         62.0376       -0.0123578          147.44
0.556                  -0.720017        -150.989         -56.6173         60.2171         -56.6175         60.2155       -0.0124786          147.37
0.557                   -0.75039        -151.644         -56.4339         58.3763         -56.4341          58.375       -0.0126012         147.299
0.558                  -0.782525        -152.303         -56.2477         56.5152         -56.2479         56.5141       -0.0127256         147.229
0.559                  -0.816509        -152.963         -56.0588         54.6318          -56.059         54.6309       -0.0128519         147.158
0.56                   -0.852428        -153.625         -55.8673         52.7242         -55.8674         52.7235         -0.01298         147.087
0.561                  -0.890363        -154.287         -55.6733         50.7904         -55.6735         50.7899       -0.0131101         147.016
0.562                  -0.930393        -154.949         -55.4772         48.8286         -55.4774         48.8283       -0.0132421         146.945
0.563                  -0.972589         -155.61         -55.2792         46.8368         -55.2794         46.8368        -0.013376         146.873
0.564                   -1.01701        -156.268         -55.0795         44.8134         -55.0797         44.8135       -0.0135118         146.802
0.565                   -1.06372        -156.923         -54.8784         42.7567         -54.8786         42.7569       -0.0136495          146.73
0.566                   -1.11274        -157.572         -54.6763          40.665         -54.6765         40.6654       -0.0137892         146.658
0.567                   -1.16409        -158.216         -54.4736         38.5371         -54.4737         38.5376       -0.0139308         146.587
0.568                   -1.21778        -158.851         -54.2705         36.3716         -54.2706         36.3722       -0.0140743         146.515
0.569                   -1.27375        -159.476         -54.0677         34.1677         -54.0678         34.1683       -0.0142197         146.443
0.57                    -1.33196         -160.09         -53.8654         31.9244         -53.8655         31.9251        -0.014367          146.37
0.571                   -1.39231         -160.69         -53.6643         29.6413         -53.6643          29.642       -0.0145161         146.298
0.572                   -1.45464        -161.275         -53.4647         27.3182         -53.4647         27.3189       -0.0146672         146.225
0.573                   -1.51878        -161.842         -53.2672         24.9552         -53.2672          24.956         -0.01482         146.153
0.574                   -1.58448         -162.39         -53.0723         22.5528         -53.0723         22.5536       -0.0149747          146.08
0.575                   -1.65147        -162.917         -52.8806          20.112         -52.8806         20.1127       -0.0151312         146.007
0.576                   -1.71938        -163.421         -52.6925         17.6338         -52.6925         17.6345       -0.0152894         145.934
0.577                   -1.78784        -163.901         -52.5086           15.12         -52.5086         15.1207       -0.0154494         145.861
0.578                   -1.85638        -164.355         -52.3293         12.5727         -52.3293         12.5732        -0.015611         145.788
0.579                    -1.9245        -164.784         -52.1552         9.99414         -52.1552         9.99465       -0.0157743         145.714
0.58                    -1.99169        -165.185         -51.9866         7.38724         -51.9866         7.38769       -0.0159393          145.64
0.581                   -2.05735        -165.561         -51.8239         4.75509         -51.8239         4.75547       -0.0161059         145.567
0.582                   -2.12092         -165.91         -51.6674          2.1011         -51.6674         2.10142        -0.016274         145.493
0.583                   -2.18181        -166.236         -51.5174       -0.571057         -51.5174       -0.570794       -0.0164437         145.419
0.584                   -2.23945        -166.539         -51.3741        -3.25753         -51.3741        -3.25733       -0.0166149         145.344
0.585                   -2.29331        -166.822         -51.2376        -5.95435         -51.2376        -5.95419       -0.0167877          145.27
0.586                   -2.34292        -167.089          -51.108        -8.65745          -51.108        -8.65734        -0.016962         145.195
0.587                   -2.38788        -167.343         -50.9852        -11.3628         -50.9852        -11.3627       -0.0171377          145.12
0.588                   -2.42785        -167.588         -50.8692        -14.0664         -50.8692        -14.0664        -0.017315         145.046
0.589                   -2.46264        -167.829         -50.7598        -16.7645         -50.7598        -16.7645       -0.0174938         144.971
0.59                    -2.49211        -168.071         -50.6569        -19.4534         -50.6569        -19.4535       -0.0176741         144.895
0.591                   -2.51627        -168.318           -50.56        -22.1297           -50.56        -22.1298       -0.0178559          144.82
0.592                   -2.53522        -168.574          -50.469        -24.7903          -50.469        -24.7904       -0.0180394         144.744
0.593                   -2.54914        -168.844         -50.3834        -27.4324         -50.3835        -27.4326       -0.0182244         144.668
0.594                   -2.55834        -169.133         -50.3029        -30.0535          -50.303        -30.0538       -0.0184112         144.593
0.595                   -2.56316        -169.443         -50.2271        -32.6516         -50.2271        -32.6519       -0.0185996         144.516
0.596                   -2.56402        -169.778         -50.1554        -35.2248         -50.1554        -35.2252       -0.0187898          144.44
0.597                    -2.5614        -170.141         -50.0875        -37.7719         -50.0875        -37.7724       -0.0189819         144.364
0.598                   -2.55578        -170.533         -50.0229        -40.2918         -50.0229        -40.2924        -0.019176         144.287
0.599                   -2.54766        -170.957         -49.9611        -42.7837         -49.9611        -42.7844        -0.019372          144.21
0.6                     -2.53755        -171.413         -49.9017        -45.2474         -49.9017        -45.2482       -0.0195702         144.133
0.601                   -2.52594        -171.903         -49.8443        -47.6826         -49.8443        -47.6836       -0.0197706         144.056
0.602                   -2.51332        -172.426         -49.7885        -50.0896         -49.7885        -50.0907       -0.0199733         143.978
0.603                   -2.50012        -172.983         -49.7339        -52.4687         -49.7338          -52.47       -0.0201784         143.901
0.604                   -2.48679        -173.573           -49.68        -54.8206           -49.68         -54.822        -0.020386         143.823
0.605                   -2.47369        -174.196         -49.6266        -57.1459         -49.6266        -57.1475       -0.0205963         143.745
0.606                    -2.4612        -174.852         -49.5734        -59.4457         -49.5734        -59.4474       -0.0208094         143.666
0.607                   -2.44963        -175.539           -49.52         -61.721           -49.52        -61.7229       -0.0210252         143.588
0.608                   -2.43928        -176.257         -49.4662         -63.973         -49.4661         -63.975       -0.0212441         143.509
0.609                   -2.43041        -177.004         -49.4117        -66.2028         -49.4117         -66.205        -0.021466          143.43
0.61                    -2.42326         -177.78         -49.3564        -68.4119         -49.3563        -68.4142       -0.0216912         143.351
0.611                   -2.41804        -178.584         -49.2999        -70.6016         -49.2999        -70.6041       -0.0219196         143.272
0.612                   -2.41494        -179.415         -49.2423        -72.7733         -49.2422        -72.7759       -0.0221514         143.192
0.613                   -2.41412         179.728         -49.1832        -74.9284         -49.1832        -74.9312       -0.0223867         143.112
0.614                   -2.41575         178.847         -49.1226        -77.0684         -49.1226        -77.0713       -0.0226257         143.032
0.615                   -2.41996         177.941         -49.0604        -79.1947         -49.0604        -79.1977       -0.0228683         142.952
0.616                   -2.42689         177.012         -48.9965        -81.3088         -48.9966        -81.3119       -0.0231148         142.872
0.617                   -2.43665          176.06         -48.9309         -83.412         -48.9309        -83.4153       -0.0233651         142.791
0.618                   -2.44937         175.087         -48.8633        -85.5058         -48.8634        -85.5092       -0.0236194          142.71
0.619                   -2.46516         174.092          -48.794        -87.5916          -48.794         -87.595       -0.0238778         142.629
0.62                    -2.48412         173.077         -48.7227        -89.6706         -48.7228        -89.6741       -0.0241403         142.547
0.621                   -2.50637         172.041         -48.6496        -91.7443         -48.6497        -91.7479        -0.024407         142.466
0.622                     -2.532         170.986         -48.5745        -93.8139         -48.5746        -93.8175        -0.024678         142.384
0.623                   -2.56115         169.912         -48.4976        -95.8806         -48.4978        -95.8843       -0.0249533         142.302
0.624                   -2.59391         168.819         -48.4189        -97.9457          -48.419        -97.9494        -0.025233         142.219
0.625                   -2.63041         167.708         -48.3383         -100.01         -48.3385        -100.014       -0.0255173         142.136
0.626                   -2.67078          166.58         -48.2561        -102.076         -48.2562        -102.079       -0.0258061         142.054
0.627                   -2.71514         165.434         -48.1721        -104.143         -48.1723        -104.146       -0.0260994          141.97
0.628                   -2.76363         164.271         -48.0865        -106.212         -48.0867        -106.216       -0.0263974         141.887
0.629                   -2.81639         163.091         -47.9994        -108.286         -47.9996        -108.289       -0.0267002         141.803
0.63                    -2.87359         161.895         -47.9108        -110.364         -47.9111        -110.367       -0.0270077         141.719
0.631                   -2.93538         160.684         -47.8209        -112.448         -47.8212        -112.451         -0.02732         141.635
0.632                   -3.00194         159.457         -47.7298        -114.538           -47.73        -114.541       -0.0276372          141.55
0.633                   -3.07344         158.216         -47.6375        -116.635         -47.6377        -116.638       -0.0279593         141.465
0.634                   -3.15008          156.96         -47.5442        -118.741         -47.5445        -118.744       -0.0282864          141.38
0.635                   -3.23207         155.691           -47.45        -120.855         -47.4503        -120.857       -0.0286186         141.295
0.636                   -3.31962         154.409         -47.3551        -122.978         -47.3554         -122.98       -0.0289558         141.209
0.637                   -3.41295         153.115         -47.2595        -125.111         -47.2598        -125.113       -0.0292982         141.123
0.638                    -3.5123         151.809         -47.1635        -127.254         -47.1638        -127.256       -0.0296458         141.037
0.639                   -3.61793         150.492         -47.0672        -129.407         -47.0674         -129.41       -0.0299986          140.95
0.64                    -3.73009         149.166         -46.9706        -131.572         -46.9709        -131.574       -0.0303568         140.863
0.641                   -3.84906         147.831         -46.8741        -133.748         -46.8744         -133.75       -0.0307204         140.776
0.642                   -3.97512          146.49         -46.7777        -135.936          -46.778        -135.938       -0.0310895         140.688
0.643                   -4.10858         145.142         -46.6816        -138.135         -46.6819        -138.137       -0.0314641         140.601
0.644                   -4.24973          143.79          -46.586        -140.346         -46.5863        -140.348       -0.0318443         140.512
0.645                    -4.3989         142.435         -46.4911        -142.568         -46.4913         -142.57       -0.0322303         140.424
0.646                   -4.55642          141.08         -46.3969        -144.802         -46.3971        -144.804        -0.032622         140.335
0.647                   -4.72263         139.726         -46.3037        -147.048         -46.3039        -147.049       -0.0330196         140.246
0.648                   -4.89788         138.376         -46.2116        -149.304         -46.2118        -149.305       -0.0334232         140.156
0.649                   -5.08253         137.033         -46.1208        -151.571          -46.121        -151.572       -0.0338329         140.066
0.65                    -5.27694         135.699         -46.0315        -153.848         -46.0317        -153.849       -0.0342488         139.976
0.651                   -5.48147         134.377         -45.9438        -156.135         -45.9439        -156.136       -0.0346711         139.885
0.652                   -5.69651         133.072         -45.8578        -158.431         -45.8579        -158.432       -0.0350997         139.794
0.653                   -5.92242         131.788         -45.7737        -160.736         -45.7738        -160.736        -0.035535         139.703
0.654                   -6.15957         130.528         -45.6917        -163.047         -45.6918        -163.048       -0.0359769         139.611
0.655                   -6.40833         129.297         -45.6118        -165.366         -45.6118        -165.366       -0.0364256         139.519
0.656                   -6.66904         128.102         -45.5341         -167.69         -45.5341        -167.691       -0.0368814         139.427
0.657                   -6.94204         126.947         -45.4588         -170.02         -45.4588         -170.02       -0.0373443         139.334
0.658                   -7.22764          125.84         -45.3859        -172.353          -45.386        -172.353       -0.0378145          139.24
0.659                   -7.52611         124.788         -45.3156        -174.688         -45.3156        -174.688       -0.0382922         139.147
0.66                    -7.83768         123.799         -45.2479        -177.026         -45.2479        -177.026       -0.0387775         139.053
0.661                   -8.16252         122.881         -45.1828        -179.363         -45.1827        -179.363       -0.0392707         138.958
0.662                   -8.50072         122.046         -45.1203           178.3         -45.1203           178.3       -0.0397719         138.863
0.663                   -8.85225         121.302         -45.0606         175.965         -45.0606         175.965       -0.0402813         138.768
0.664                   -9.21697         120.664         -45.0036         173.634         -45.0035         173.633       -0.0407991         138.672
0.665                   -9.59453         120.143         -44.9492         171.306         -44.9492         171.306       -0.0413256         138.576
0.666                   -9.98441         119.754         -44.8976         168.985         -44.8975         168.985       -0.0418609         138.479
0.667                   -10.3858         119.513         -44.8485          166.67         -44.8484          166.67       -0.0424053         138.382
0.668                   -10.7974         119.437         -44.8021         164.363          -44.802         164.363        -0.042959         138.284
0.669                   -11.2177         119.543         -44.7581         162.066          -44.758         162.066       -0.0435223         138.186
0.67                    -11.6445         119.851         -44.7166         159.778         -44.7165         159.778       -0.0440953         138.087
0.671                    -12.075         120.378         -44.6774         157.502         -44.6773         157.502       -0.0446785         137.988
0.672                   -12.5056         121.144         -44.6405         155.238         -44.6404         155.238       -0.0452719         137.888
0.673                   -12.9319         122.164         -44.6057         152.987         -44.6056         152.987       -0.0458759         137.788
0.674                   -13.3484         123.452         -44.5729         150.751         -44.5728          150.75       -0.0464908         137.688
0.675                   -13.7489         125.015          -44.542         148.528         -44.5419         148.528       -0.0471169         137.586
0.676                   -14.1263         126.852         -44.5128         146.322         -44.5127         146.321       -0.0477544         137.485
0.677                   -14.4728         128.953         -44.4852         144.131         -44.4852         144.131       -0.0484037         137.382
0.678                   -14.7805         131.294         -44.4591         141.957         -44.4591         141.957        -0.049065          137.28
0.679                   -15.0422         133.838         -44.4343         139.801         -44.4343         139.801       -0.0497387         137.176
0.68                    -15.2515         136.534         -44.4107         137.662         -44.4106         137.662       -0.0504251         137.072
0.681                   -15.4042         139.321          -44.388         135.541          -44.388         135.541       -0.0511246         136.968
0.682                   -15.4984         142.129         -44.3663         133.438         -44.3662         133.438       -0.0518374         136.863
0.683                   -15.5348         144.891         -44.3452         131.354         -44.3451         131.353       -0.0525639         136.757
0.684                   -15.5169          147.54         -44.3246         129.288         -44.3246         129.288       -0.0533046         136.651
0.685                     -15.45         150.024         -44.3044         127.241         -44.3044         127.241       -0.0540597         136.544
0.686                    -15.341         152.298         -44.2845         125.212         -44.2845         125.212       -0.0548296         136.437
0.687                   -15.1975         154.336         -44.2646         123.203         -44.2646         123.203       -0.0556147         136.328
0.688                   -15.0269         156.121         -44.2447         121.211         -44.2447         121.211       -0.0564155          136.22
0.689                   -14.8364         157.649         -44.2246         119.239         -44.2246         119.239       -0.0572323          136.11
0.69                    -14.6325         158.924         -44.2041         117.284         -44.2041         117.284       -0.0580655             136
0.691                   -14.4206         159.956         -44.1831         115.347         -44.1832         115.348       -0.0589155         135.889
0.692                   -14.2052          160.76         -44.1616         113.429         -44.1616         113.429       -0.0597829         135.778
0.693                   -13.9901         161.352         -44.1393         111.527         -44.1394         111.527        -0.060668         135.665
0.694                   -13.7781         161.749         -44.1162         109.642         -44.1163         109.643       -0.0615714         135.553
0.695                   -13.5715         161.969         -44.0921         107.775         -44.0922         107.775       -0.0624934         135.439
0.696                   -13.3719         162.027         -44.0669         105.923          -44.067         105.923       -0.0634346         135.324