! TOUCHSTONE file generated by CST MICROWAVE STUDIO
! Date and time: Mon Nov 30 08:08:46 2020
! Project name: Scenario_1_Planar_Body_Tissue_Out_of_Line.cst
! Parameters = {dy1=328.7; L_HA=400; Ltissue=700; MT=2.54; Rad_Dielectric=30; Rad_Lower=7.3; Rad_Upper=30; Wtissue=700; a_HA=580; a_WG=246; b_HA=500; b_WG=121; c_HA=0; c_WG=187; d_feed=85; dx1=866; h_feed=15; h_lower=18; h_upper=40; hfat=3; hgap=25; hmuscle=50; hskin=1.5}
! Header version: 2018
! Port assignment regex: !\s*Touchstone port\s*([0-9]+)\s*=\s*(CST MWS port|CST DS port)\s*([0-9]+|Zmin|Zmax)\s*\(\"(.*)\"\)(\s*mode\s*([0-9]+))?.*
! Touchstone port assignment:
! Touchstone port 1 = CST MWS port 1 ("")
! Touchstone port 2 = CST MWS port 2 ("")
# GHz S DB R 50
0.5                    -0.128182        -122.078         -65.4437         76.7603         -65.4435         76.7635      -0.00751606         151.157
0.501                  -0.137262        -122.481         -65.6155         74.5242         -65.6173         74.5087      -0.00759288         151.092
0.502                  -0.146319        -122.887         -65.7839         72.1959         -65.7876         72.1606      -0.00766987         151.027
0.503                  -0.155354        -123.294          -65.948         69.7726         -65.9534         69.7163      -0.00774705         150.962
0.504                  -0.164367        -123.703         -66.1067          67.252         -66.1135         67.1737      -0.00782444         150.896
0.505                  -0.173361        -124.114         -66.2586         64.6326         -66.2666         64.5313      -0.00790205         150.831
0.506                  -0.182336        -124.527         -66.4026         61.9135         -66.4115         61.7883      -0.00797991         150.765
0.507                  -0.191296        -124.942         -66.5371         59.0949         -66.5466         58.9452      -0.00805804           150.7
0.508                   -0.20024        -125.359         -66.6607         56.1781         -66.6704         56.0035      -0.00813645         150.634
0.509                  -0.209172        -125.779         -66.7718         53.1659         -66.7814         52.9662      -0.00821517         150.568
0.51                   -0.218092          -126.2         -66.8689         50.0624         -66.8779         49.8378      -0.00829421         150.503
0.511                  -0.227004        -126.623         -66.9505         46.8732         -66.9585         46.6244       -0.0083736         150.437
0.512                  -0.235908        -127.049          -67.015         43.6059         -67.0216         43.3338      -0.00845335         150.371
0.513                  -0.244807        -127.476         -67.0611         40.2693         -67.0659         39.9753      -0.00853349         150.305
0.514                  -0.253704        -127.907         -67.0877         36.8739         -67.0904         36.5599      -0.00861403         150.238
0.515                  -0.262601        -128.339         -67.0937         33.4315         -67.0939         33.0996        -0.008695         150.172
0.516                    -0.2715        -128.774         -67.0785         29.9549          -67.076         29.6077      -0.00877641         150.106
0.517                  -0.280405        -129.211         -67.0417         26.4577         -67.0362          26.098      -0.00885829         150.039
0.518                  -0.289317        -129.651         -66.9831         22.9537         -66.9745         22.5846      -0.00894065         149.973
0.519                   -0.29824        -130.093         -66.9031         19.4568         -66.8912         19.0812      -0.00902352         149.906
0.52                   -0.307178        -130.538         -66.8021         15.9802          -66.787         15.6014      -0.00910691          149.84
0.521                  -0.316133        -130.985         -66.6809         12.5364         -66.6626         12.1572      -0.00919085         149.773
0.522                  -0.325108        -131.435         -66.5406         9.13648         -66.5193         8.75984      -0.00927536         149.706
0.523                  -0.334108        -131.888         -66.3825         5.79032         -66.3583         5.41885      -0.00936046         149.639
0.524                  -0.343137        -132.344         -66.2079         2.50617          -66.181         2.14218      -0.00944616         149.572
0.525                  -0.352198        -132.802         -66.0184       -0.709394         -65.9891        -1.06389       -0.0095325         149.505
0.526                  -0.361295        -133.264         -65.8155        -3.85138         -65.7841        -4.19469      -0.00961948         149.438
0.527                  -0.370434        -133.728         -65.6008        -6.91636         -65.5675        -7.24713      -0.00970714         149.371
0.528                  -0.379619        -134.196         -65.3758        -9.90234         -65.3409        -10.2195      -0.00979549         149.303
0.529                  -0.388855        -134.666         -65.1419        -12.8086         -65.1057        -13.1114      -0.00988455         149.236
0.53                   -0.398147         -135.14         -64.9005        -15.6355         -64.8634        -15.9235      -0.00997435         149.168
0.531                  -0.407501        -135.617          -64.653        -18.3844         -64.6152        -18.6572       -0.0100649         149.101
0.532                  -0.416924        -136.097         -64.4005        -21.0572         -64.3622         -21.315       -0.0101562         149.033
0.533                   -0.42642        -136.581         -64.1441        -23.6568         -64.1056        -23.8995       -0.0102484         148.965
0.534                  -0.435996        -137.068         -63.8847        -26.1862         -63.8462         -26.414       -0.0103413         148.897
0.535                  -0.445661        -137.559         -63.6231        -28.6489         -63.5849        -28.8622       -0.0104351         148.829
0.536                   -0.45542        -138.053         -63.3603        -31.0485         -63.3224        -31.2477       -0.0105298         148.761
0.537                  -0.465282        -138.551         -63.0967        -33.3888         -63.0593        -33.5744       -0.0106253         148.692
0.538                  -0.475255        -139.053          -62.833        -35.6737         -62.7963        -35.8463       -0.0107218         148.624
0.539                  -0.485347        -139.559         -62.5697        -37.9072         -62.5338        -38.0673       -0.0108192         148.556
0.54                   -0.495568        -140.068         -62.3072        -40.0929         -62.2722        -40.2411       -0.0109176         148.487
0.541                  -0.505927        -140.582         -62.0458        -42.2346         -62.0119        -42.3715       -0.0110169         148.418
0.542                  -0.516436        -141.099         -61.7859        -44.3361         -61.7531        -44.4623       -0.0111172          148.35
0.543                  -0.527103        -141.621         -61.5277        -46.4008          -61.496        -46.5169       -0.0112186         148.281
0.544                  -0.537942        -142.147         -61.2715        -48.4321          -61.241        -48.5386        -0.011321         148.212
0.545                  -0.548964        -142.677         -61.0174        -50.4333         -60.9882        -50.5308       -0.0114244         148.143
0.546                  -0.560182        -143.212         -60.7655        -52.4075         -60.7376        -52.4966        -0.011529         148.073
0.547                  -0.571611        -143.752          -60.516        -54.3576         -60.4894        -54.4388       -0.0116347         148.004
0.548                  -0.583263        -144.296          -60.269        -56.2865         -60.2438        -56.3603       -0.0117415         147.935
0.549                  -0.595156        -144.845         -60.0245         -58.197         -60.0007        -58.2638       -0.0118495         147.865
0.55                   -0.607305        -145.398         -59.7826        -60.0915         -59.7602        -60.1518       -0.0119586         147.795
0.551                  -0.619727        -145.957         -59.5434        -61.9724         -59.5223        -62.0268        -0.012069         147.726
0.552                  -0.632442         -146.52         -59.3068        -63.8422         -59.2872        -63.8909       -0.0121806         147.656
0.553                  -0.645468        -147.089          -59.073         -65.703         -59.0547        -65.7465       -0.0122935         147.586
0.554                  -0.658827        -147.663         -58.8419        -67.5569          -58.825        -67.5956       -0.0124076         147.515
0.555                  -0.672541        -148.243         -58.6135        -69.4059          -58.598          -69.44       -0.0125231         147.445
0.556                  -0.686632        -148.828         -58.3879        -71.2519         -58.3737        -71.2818       -0.0126399         147.375
0.557                  -0.701127        -149.418         -58.1649        -73.0966         -58.1521        -73.1227       -0.0127581         147.304
0.558                  -0.716052        -150.014         -57.9448        -74.9418         -57.9333        -74.9643       -0.0128776         147.234
0.559                  -0.731434        -150.616         -57.7273        -76.7891         -57.7171        -76.8083       -0.0129985         147.163
0.56                   -0.747305        -151.224         -57.5126          -78.64         -57.5037        -78.6561       -0.0131209         147.092
0.561                  -0.763695        -151.838         -57.3006        -80.4961         -57.2929        -80.5093       -0.0132447         147.021
0.562                   -0.78064        -152.458         -57.0914        -82.3586         -57.0849        -82.3693         -0.01337          146.95
0.563                  -0.798175        -153.085         -56.8848        -84.2289         -56.8795        -84.2372       -0.0134968         146.879
0.564                  -0.816339        -153.717          -56.681        -86.1083         -56.6768        -86.1144       -0.0136252         146.807
0.565                  -0.835172        -154.356         -56.4799        -87.9979         -56.4768         -88.002       -0.0137551         146.736
0.566                  -0.854719        -155.002         -56.2816        -89.8989         -56.2795        -89.9012       -0.0138866         146.664
0.567                  -0.875026        -155.654         -56.0859        -91.8124         -56.0849        -91.8129       -0.0140197         146.592
0.568                  -0.896141        -156.313          -55.893        -93.7392          -55.893        -93.7382       -0.0141544          146.52
0.569                  -0.918119        -156.979         -55.7029        -95.6804         -55.7039         -95.678       -0.0142908         146.448
0.57                   -0.941013        -157.651         -55.5156        -97.6368         -55.5174        -97.6331       -0.0144289         146.376
0.571                  -0.964883         -158.33          -55.331        -99.6093         -55.3337        -99.6044       -0.0145687         146.304
0.572                  -0.989793        -159.017         -55.1492        -101.598         -55.1527        -101.593       -0.0147102         146.231
0.573                   -1.01581         -159.71         -54.9703        -103.605         -54.9746        -103.598       -0.0148535         146.159
0.574                     -1.043         -160.41         -54.7942         -105.63         -54.7992        -105.622       -0.0149986         146.086
0.575                   -1.07144        -161.117          -54.621        -107.673         -54.6266        -107.665       -0.0151455         146.013
0.576                   -1.10121        -161.831         -54.4507        -109.736          -54.457        -109.726       -0.0152942          145.94
0.577                   -1.13239        -162.551         -54.2834        -111.817         -54.2902        -111.807       -0.0154448         145.867
0.578                   -1.16507        -163.278          -54.119        -113.919         -54.1263        -113.909       -0.0155973         145.794
0.579                   -1.19935        -164.012         -53.9576        -116.041         -53.9654         -116.03       -0.0157517          145.72
0.58                    -1.23531        -164.752         -53.7993        -118.183         -53.8075        -118.172       -0.0159081         145.646
0.581                   -1.27306        -165.498          -53.644        -120.346         -53.6526        -120.334       -0.0160664         145.573
0.582                    -1.3127         -166.25         -53.4918        -122.529         -53.5007        -122.517       -0.0162268         145.499
0.583                   -1.35435        -167.007         -53.3428        -124.733          -53.352         -124.72       -0.0163891         145.425
0.584                   -1.39811        -167.769          -53.197        -126.957         -53.2064        -126.944       -0.0165535          145.35
0.585                   -1.44409        -168.535         -53.0544        -129.201         -53.0639        -129.188         -0.01672         145.276
0.586                   -1.49243        -169.306          -52.915        -131.465         -52.9246        -131.452       -0.0168886         145.201
0.587                   -1.54322        -170.079         -52.7789        -133.749         -52.7886        -133.735       -0.0170593         145.126
0.588                    -1.5966        -170.855          -52.646        -136.052         -52.6557        -136.038       -0.0172322         145.052
0.589                   -1.65268        -171.632         -52.5165        -138.374         -52.5262         -138.36       -0.0174072         144.976
0.59                    -1.71158        -172.409         -52.3902        -140.714         -52.3999          -140.7       -0.0175845         144.901
0.591                   -1.77339        -173.185         -52.2673        -143.072         -52.2768        -143.058       -0.0177639         144.826
0.592                   -1.83822         -173.96         -52.1477        -145.446         -52.1571        -145.433       -0.0179456          144.75
0.593                   -1.90617         -174.73         -52.0314        -147.837         -52.0406        -147.823       -0.0181296         144.674
0.594                    -1.9773        -175.495         -51.9184        -150.243         -51.9274         -150.23       -0.0183159         144.598
0.595                   -2.05167        -176.253         -51.8087        -152.663         -51.8174         -152.65       -0.0185046         144.522
0.596                   -2.12931        -177.002         -51.7022        -155.097         -51.7106        -155.085       -0.0186955         144.446
0.597                   -2.21023         -177.74          -51.599        -157.544         -51.6071        -157.532       -0.0188889         144.369
0.598                    -2.2944        -178.464         -51.4989        -160.002         -51.5066         -159.99       -0.0190847         144.293
0.599                   -2.38175        -179.172         -51.4019        -162.471         -51.4092        -162.459       -0.0192829         144.216
0.6                     -2.47216        -179.861         -51.3079        -164.949         -51.3149        -164.938       -0.0194835         144.139
0.601                   -2.56546          179.47         -51.2169        -167.436         -51.2235        -167.425       -0.0196867         144.062
0.602                   -2.66144         178.826         -51.1287        -169.929         -51.1349        -169.919       -0.0198923         143.984
0.603                    -2.7598         178.207         -51.0434        -172.429         -51.0491        -172.419       -0.0201005         143.907
0.604                   -2.86019         177.618         -50.9607        -174.934          -50.966        -174.925       -0.0203113         143.829
0.605                   -2.96218         177.059         -50.8806        -177.443         -50.8855        -177.434       -0.0205246         143.751
0.606                   -3.06527         176.535          -50.803        -179.954         -50.8074        -179.946       -0.0207406         143.673
0.607                   -3.16889         176.045         -50.7277         177.533         -50.7317          177.54       -0.0209592         143.594
0.608                    -3.2724         175.592         -50.6546         175.019         -50.6581         175.026       -0.0211806         143.515
0.609                    -3.3751         175.177         -50.5835         172.506         -50.5867         172.512       -0.0214046         143.437
0.61                    -3.47624           174.8         -50.5144         169.994         -50.5171             170       -0.0216314         143.358
0.611                   -3.57505         174.459         -50.4471         167.485         -50.4494          167.49       -0.0218611         143.278
0.612                   -3.67072         174.155         -50.3813         164.979         -50.3832         164.983       -0.0220935         143.199
0.613                   -3.76247         173.884         -50.3171         162.478         -50.3186         162.481       -0.0223289         143.119
0.614                   -3.84953         173.644         -50.2542         159.981         -50.2553         159.984       -0.0225672         143.039
0.615                   -3.93119         173.432         -50.1924          157.49         -50.1932         157.492       -0.0228085         142.959
0.616                   -4.00683         173.241         -50.1317         155.006         -50.1322         155.008       -0.0230528         142.879
0.617                   -4.07592         173.068         -50.0718          152.53          -50.072         152.531       -0.0233002         142.798
0.618                   -4.13804         172.907         -50.0126         150.061         -50.0125         150.061       -0.0235507         142.717
0.619                   -4.19293          172.75          -49.954           147.6         -49.9536           147.6       -0.0238045         142.636
0.62                    -4.24046         172.593         -49.8958         145.149         -49.8951         145.148       -0.0240615         142.555
0.621                   -4.28065         172.427         -49.8378         142.707         -49.8369         142.706        -0.024322         142.473
0.622                   -4.31365         172.248         -49.7799         140.275         -49.7789         140.273       -0.0245858         142.391
0.623                   -4.33975         172.049         -49.7221         137.853         -49.7209         137.851       -0.0248532         142.309
0.624                   -4.35937         171.824          -49.664         135.441         -49.6627         135.438       -0.0251242         142.227
0.625                   -4.37302         171.568         -49.6057         133.039         -49.6042         133.037       -0.0253989         142.144
0.626                   -4.38129         171.278          -49.547         130.649         -49.5454         130.646       -0.0256774         142.061
0.627                   -4.38483         170.949         -49.4878         128.269         -49.4861         128.266       -0.0259598         141.978
0.628                   -4.38431         170.578         -49.4279           125.9         -49.4262         125.896       -0.0262462         141.895
0.629                   -4.38046         170.163         -49.3673         123.541         -49.3655         123.538       -0.0265367         141.811
0.63                    -4.37398         169.702         -49.3059         121.194         -49.3041          121.19       -0.0268316         141.727
0.631                   -4.36557         169.194         -49.2435         118.856         -49.2417         118.852       -0.0271308         141.643
0.632                    -4.3559         168.638         -49.1801         116.529         -49.1783         116.525       -0.0274344         141.558
0.633                   -4.34562         168.035         -49.1157         114.212         -49.1139         114.208       -0.0277428         141.474
0.634                   -4.33533         167.384           -49.05         111.905         -49.0483         111.901       -0.0280559         141.388
0.635                   -4.32561         166.686         -48.9831         109.607         -48.9815         109.603       -0.0283739         141.303
0.636                   -4.31699         165.942          -48.915         107.319         -48.9134         107.315        -0.028697         141.217
0.637                   -4.30994         165.152         -48.8455         105.038         -48.8439         105.034       -0.0290253         141.131
0.638                   -4.30492         164.318         -48.7746         102.766         -48.7731         102.762        -0.029359         141.045
0.639                   -4.30235          163.44         -48.7022         100.502         -48.7009         100.498       -0.0296981         140.959
0.64                    -4.30261         162.521         -48.6284         98.2445         -48.6272         98.2406       -0.0300429         140.872
0.641                   -4.30604          161.56         -48.5532         95.9935          -48.552         95.9898       -0.0303935         140.784
0.642                   -4.31297          160.56         -48.4764         93.7483         -48.4753         93.7447       -0.0307501         140.697
0.643                   -4.32372         159.521         -48.3981         91.5082         -48.3971         91.5048       -0.0311127         140.609
0.644                   -4.33857         158.444         -48.3182         89.2726         -48.3174         89.2693       -0.0314816         140.521
0.645                    -4.3578         157.332         -48.2368         87.0406         -48.2361         87.0376       -0.0318569         140.432
0.646                   -4.38168         156.184          -48.154         84.8117         -48.1534         84.8088       -0.0322387         140.343
0.647                   -4.41047         155.001         -48.0696         82.5849         -48.0691         82.5822       -0.0326272         140.254
0.648                   -4.44442         153.786         -47.9837         80.3595         -47.9833          80.357       -0.0330226         140.164
0.649                   -4.48381         152.538         -47.8964         78.1347         -47.8961         78.1324       -0.0334249         140.075
0.65                    -4.52888         151.258         -47.8077         75.9096         -47.8075         75.9076       -0.0338344         139.984
0.651                   -4.57991         149.948         -47.7177         73.6835         -47.7176         73.6816       -0.0342511         139.894
0.652                   -4.63719         148.608         -47.6263         71.4553         -47.6263         71.4537       -0.0346753         139.803
0.653                   -4.70098         147.238         -47.5337         69.2244         -47.5337          69.223        -0.035107         139.711
0.654                   -4.77161         145.841         -47.4399         66.9899           -47.44         66.9886       -0.0355463         139.619
0.655                   -4.84937         144.416         -47.3451         64.7508         -47.3452         64.7498       -0.0359935         139.527
0.656                   -4.93461         142.964         -47.2492         62.5065         -47.2494         62.5056       -0.0364487         139.435
0.657                   -5.02768         141.487         -47.1525          60.256         -47.1527         60.2553        -0.036912         139.342
0.658                   -5.12894         139.985         -47.0549         57.9986         -47.0552         57.9981       -0.0373836         139.248
0.659                   -5.23879          138.46         -46.9567         55.7336          -46.957         55.7332       -0.0378635         139.155
0.66                    -5.35765         136.911          -46.858         53.4602         -46.8583         53.4599       -0.0383521         139.061
0.661                   -5.48595         135.342         -46.7588         51.1777         -46.7591         51.1776       -0.0388493         138.966
0.662                   -5.62417         133.752         -46.6594         48.8857         -46.6597         48.8856       -0.0393553         138.871
0.663                    -5.7728         132.144         -46.5598         46.5834         -46.5601         46.5834       -0.0398704         138.776
0.664                   -5.93238         130.519         -46.4603         44.2705         -46.4606         44.2705       -0.0403946          138.68
0.665                   -6.10346          128.88          -46.361         41.9465         -46.3613         41.9465       -0.0409282         138.584
0.666                   -6.28664         127.227         -46.2621         39.6111         -46.2624         39.6111       -0.0414712         138.487
0.667                   -6.48256         125.564         -46.1638         37.2641          -46.164         37.2641        -0.042024          138.39
0.668                   -6.69188         123.893         -46.0662         34.9055         -46.0663         34.9053       -0.0425865         138.292
0.669                   -6.91532         122.217         -45.9695         32.5351         -45.9696         32.5348       -0.0431591         138.194
0.67                    -7.15365          120.54          -45.874         30.1531          -45.874         30.1527       -0.0437419         138.095
0.671                   -7.40767         118.865         -45.7797         27.7598         -45.7797         27.7593       -0.0443351         137.996
0.672                   -7.67826         117.197          -45.687         25.3555         -45.6869         25.3548        -0.044939         137.897
0.673                   -7.96635          115.54         -45.5959         22.9406         -45.5958         22.9397       -0.0455536         137.797
0.674                   -8.27293           113.9         -45.5066         20.5159         -45.5065         20.5148       -0.0461793         137.696
0.675                   -8.59907         112.284         -45.4194          18.082         -45.4193         18.0807       -0.0468163         137.595
0.676                   -8.94593         110.699         -45.3343         15.6399         -45.3342         15.6383       -0.0474648         137.493
0.677                   -9.31474         109.152         -45.2516         13.1904         -45.2514         13.1887        -0.048125         137.391
0.678                   -9.70687         107.654         -45.1713         10.7348          -45.171         10.7328       -0.0487971         137.289
0.679                   -10.1238         106.216         -45.0935         8.27425         -45.0932         8.27205       -0.0494816         137.185
0.68                     -10.567         104.852         -45.0184         5.81001         -45.0181          5.8076       -0.0501785         137.082
0.681                   -11.0383         103.575          -44.946          3.3435         -44.9457         3.34091       -0.0508883         136.977
0.682                   -11.5395         102.406         -44.8763         0.87617         -44.8761        0.873411       -0.0516111         136.872
0.683                   -12.0726         101.367         -44.8095        -1.59047         -44.8093        -1.59337       -0.0523474         136.767
0.684                   -12.6397         100.484         -44.7455        -4.05489         -44.7452         -4.0579       -0.0530973         136.661
0.685                    -13.243         99.7913         -44.6843        -6.51553          -44.684        -6.51862       -0.0538613         136.554
0.686                   -13.8845         99.3299         -44.6258        -8.97083         -44.6256        -8.97397       -0.0546396         136.447
0.687                   -14.5662         99.1512           -44.57        -11.4193         -44.5698        -11.4224       -0.0554326         136.339
0.688                   -15.2895         99.3198         -44.5168        -13.8594         -44.5166        -13.8625       -0.0562407          136.23
0.689                   -16.0545         99.9171         -44.4661        -16.2897         -44.4659        -16.2927       -0.0570643         136.121
0.69                    -16.8595         101.045         -44.4177        -18.7088         -44.4176        -18.7117       -0.0579037         136.011
0.691                   -17.6988         102.829         -44.3716        -21.1155         -44.3715        -21.1183       -0.0587593           135.9
0.692                   -18.5604          105.42         -44.3275        -23.5086         -44.3274        -23.5112       -0.0596316         135.789
0.693                   -19.4223         108.983         -44.2852        -25.8869         -44.2852        -25.8894        -0.060521         135.677
0.694                   -20.2477         113.672         -44.2446        -28.2496         -44.2446        -28.2518       -0.0614279         135.564
0.695                   -20.9821         119.571         -44.2055        -30.5959         -44.2055        -30.5978       -0.0623528         135.451
0.696                   -21.5559         126.603         -44.1676        -32.9249         -44.1676        -32.9265       -0.0632963         135.336