! TOUCHSTONE file generated by CST MICROWAVE STUDIO
! Date and time: Mon Nov 30 09:06:00 2020
! Project name: Scenario_1_Planar_Body_Tissue_Out_of_Line_v2.cst
! Parameters = {dy1=-294.1; L_HA=400; Ltissue=700; MT=2.54; Rad_Dielectric=30; Rad_Lower=7.3; Rad_Upper=30; Wtissue=700; a_HA=580; a_WG=246; b_HA=500; b_WG=121; c_HA=0; c_WG=187; d_feed=85; dx1=346; h_feed=15; h_lower=18; h_upper=40; hfat=3; hgap=25; hmuscle=50; hskin=1.5}
! Header version: 2018
! Port assignment regex: !\s*Touchstone port\s*([0-9]+)\s*=\s*(CST MWS port|CST DS port)\s*([0-9]+|Zmin|Zmax)\s*\(\"(.*)\"\)(\s*mode\s*([0-9]+))?.*
! Touchstone port assignment:
! Touchstone port 1 = CST MWS port 1 ("")
! Touchstone port 2 = CST MWS port 2 ("")
# GHz S DB R 50
0.5                    -0.231866        -121.777         -58.4415         2.24609          -58.441         2.24551      -0.00819035         151.146
0.501                  -0.236672        -122.165         -58.3343       -0.239474         -58.3339       -0.239942      -0.00823399         151.081
0.502                  -0.241407        -122.555           -58.23        -2.71109         -58.2297        -2.71144       -0.0082785         151.015
0.503                  -0.246075        -122.947         -58.1287        -5.16762         -58.1284        -5.16788       -0.0083239          150.95
0.504                  -0.250679        -123.343         -58.0304        -7.60799         -58.0302        -7.60815       -0.0083702         150.885
0.505                  -0.255222        -123.742         -57.9352        -10.0311         -57.9349        -10.0312      -0.00841741         150.819
0.506                  -0.259706        -124.143         -57.8429         -12.436         -57.8427         -12.436      -0.00846555         150.754
0.507                  -0.264135        -124.547         -57.7538        -14.8216         -57.7536        -14.8215      -0.00851463         150.688
0.508                  -0.268512        -124.955         -57.6677        -17.1871         -57.6675        -17.1869      -0.00856468         150.623
0.509                   -0.27284        -125.365         -57.5846        -19.5314         -57.5844        -19.5312       -0.0086157         150.557
0.51                   -0.277123        -125.779         -57.5044        -21.8539         -57.5043        -21.8536      -0.00866772         150.491
0.511                  -0.281364        -126.195         -57.4272        -24.1537         -57.4271        -24.1533      -0.00872074         150.425
0.512                  -0.285567        -126.615         -57.3528        -26.4301         -57.3527        -26.4297       -0.0087748         150.359
0.513                  -0.289737        -127.038         -57.2812        -28.6825         -57.2811         -28.682      -0.00882989         150.293
0.514                  -0.293876        -127.464         -57.2123        -30.9102         -57.2122        -30.9098      -0.00888605         150.227
0.515                  -0.297989        -127.894         -57.1459        -33.1129         -57.1458        -33.1124      -0.00894329         150.161
0.516                   -0.30208        -128.327          -57.082          -35.29         -57.0819        -35.2894      -0.00900162         150.094
0.517                  -0.306155        -128.763         -57.0204        -37.4411         -57.0204        -37.4406      -0.00906107         150.028
0.518                  -0.310217        -129.203         -56.9611         -39.566          -56.961        -39.5655      -0.00912166         149.961
0.519                  -0.314271        -129.647         -56.9038        -41.6645         -56.9038         -41.664       -0.0091834         149.895
0.52                   -0.318322        -130.094         -56.8485        -43.7364         -56.8485        -43.7358       -0.0092463         149.828
0.521                  -0.322376        -130.544         -56.7951        -45.7815          -56.795        -45.7809       -0.0093104         149.761
0.522                  -0.326438        -130.999         -56.7433        -47.7998         -56.7433        -47.7993      -0.00937571         149.694
0.523                  -0.330514        -131.457         -56.6931        -49.7913          -56.693        -49.7908      -0.00944224         149.627
0.524                  -0.334609        -131.919         -56.6443        -51.7562         -56.6443        -51.7557      -0.00951002          149.56
0.525                   -0.33873        -132.385         -56.5968        -53.6944         -56.5967         -53.694      -0.00957906         149.493
0.526                  -0.342883        -132.855         -56.5504        -55.6063         -56.5504         -55.606      -0.00964939         149.426
0.527                  -0.347075        -133.328         -56.5051         -57.492          -56.505        -57.4917      -0.00972103         149.358
0.528                  -0.351313        -133.806         -56.4606        -59.3518         -56.4605        -59.3515      -0.00979398         149.291
0.529                  -0.355604        -134.289         -56.4168         -61.186         -56.4167        -61.1857      -0.00986827         149.223
0.53                   -0.359956        -134.775         -56.3736        -62.9948         -56.3735        -62.9946      -0.00994393         149.155
0.531                  -0.364377        -135.266         -56.3309        -64.7788         -56.3308        -64.7787        -0.010021         149.088
0.532                  -0.368875        -135.761         -56.2885        -66.5383         -56.2885        -66.5382       -0.0100994          149.02
0.533                  -0.373459         -136.26         -56.2464        -68.2737         -56.2463        -68.2736       -0.0101792         148.952
0.534                  -0.378138        -136.765         -56.2044        -69.9854         -56.2043        -69.9855       -0.0102605         148.884
0.535                  -0.382922        -137.273         -56.1623         -71.674         -56.1622        -71.6741       -0.0103432         148.815
0.536                  -0.387821        -137.787         -56.1201          -73.34           -56.12        -73.3402       -0.0104274         148.747
0.537                  -0.392845        -138.305         -56.0776        -74.9838         -56.0775         -74.984       -0.0105131         148.679
0.538                  -0.398005        -138.828         -56.0348         -76.606         -56.0347        -76.6063       -0.0106003          148.61
0.539                  -0.403313        -139.357         -55.9915        -78.2071         -55.9914        -78.2075        -0.010689         148.542
0.54                   -0.408782         -139.89         -55.9477        -79.7877         -55.9476        -79.7881       -0.0107792         148.473
0.541                  -0.414423        -140.428         -55.9032        -81.3483          -55.903        -81.3488        -0.010871         148.404
0.542                  -0.420251        -140.972         -55.8579        -82.8895         -55.8578        -82.8901       -0.0109644         148.335
0.543                  -0.426279        -141.521         -55.8118        -84.4118         -55.8116        -84.4125       -0.0110593         148.266
0.544                  -0.432523        -142.076         -55.7647         -85.916         -55.7645        -85.9167       -0.0111558         148.197
0.545                  -0.438998        -142.636         -55.7165        -87.4024         -55.7164        -87.4032        -0.011254         148.128
0.546                   -0.44572        -143.202         -55.6673        -88.8718         -55.6671        -88.8727       -0.0113537         148.058
0.547                  -0.452707        -143.773         -55.6168        -90.3247         -55.6167        -90.3256       -0.0114551         147.989
0.548                  -0.459977        -144.351         -55.5651        -91.7617         -55.5649        -91.7627       -0.0115582         147.919
0.549                   -0.46755        -144.935         -55.5119        -93.1835         -55.5118        -93.1845       -0.0116629          147.85
0.55                   -0.475445        -145.524         -55.4574        -94.5906         -55.4572        -94.5917       -0.0117693          147.78
0.551                  -0.483685         -146.12         -55.4013        -95.9836         -55.4011        -95.9847       -0.0118774          147.71
0.552                  -0.492291        -146.723         -55.3436        -97.3631         -55.3434        -97.3644       -0.0119872          147.64
0.553                  -0.501287        -147.331         -55.2842        -98.7298          -55.284        -98.7311       -0.0120986          147.57
0.554                    -0.5107        -147.947         -55.2231        -100.084         -55.2229        -100.086       -0.0122118         147.499
0.555                  -0.520554        -148.569         -55.1602        -101.427           -55.16        -101.429       -0.0123268         147.429
0.556                   -0.53088        -149.198         -55.0954        -102.759         -55.0952        -102.761       -0.0124434         147.358
0.557                  -0.541705        -149.835         -55.0287        -104.081         -55.0285        -104.082       -0.0125618         147.288
0.558                  -0.553062        -150.478           -54.96        -105.392         -54.9598        -105.394        -0.012682         147.217
0.559                  -0.564984        -151.129         -54.8892        -106.695          -54.889        -106.697       -0.0128039         147.146
0.56                   -0.577507        -151.787         -54.8163         -107.99         -54.8161        -107.991       -0.0129276         147.075
0.561                  -0.590667        -152.452         -54.7412        -109.276         -54.7411        -109.278        -0.013053         147.004
0.562                  -0.604504        -153.126         -54.6639        -110.556         -54.6638        -110.558       -0.0131803         146.933
0.563                   -0.61906        -153.807         -54.5843        -111.829         -54.5842        -111.831       -0.0133093         146.861
0.564                  -0.634379        -154.496         -54.5024        -113.096         -54.5022        -113.098       -0.0134401          146.79
0.565                  -0.650509        -155.193         -54.4181        -114.359         -54.4179        -114.361       -0.0135727         146.718
0.566                  -0.667498        -155.899         -54.3313        -115.617         -54.3311        -115.619       -0.0137071         146.646
0.567                  -0.685401        -156.613          -54.242        -116.872         -54.2419        -116.874       -0.0138433         146.574
0.568                  -0.704272        -157.335         -54.1502        -118.123         -54.1501        -118.125       -0.0139813         146.502
0.569                  -0.724172        -158.066         -54.0559        -119.373         -54.0557        -119.375       -0.0141212          146.43
0.57                   -0.745164        -158.806         -53.9589        -120.622         -53.9587        -120.624       -0.0142628         146.358
0.571                  -0.767313        -159.555         -53.8592         -121.87         -53.8591        -121.872       -0.0144063         146.285
0.572                  -0.790692        -160.313         -53.7569        -123.118         -53.7568         -123.12       -0.0145516         146.213
0.573                  -0.815376         -161.08         -53.6518        -124.368         -53.6517         -124.37       -0.0146988          146.14
0.574                  -0.841443        -161.856          -53.544         -125.62         -53.5439        -125.622       -0.0148477         146.067
0.575                   -0.86898        -162.641         -53.4335        -126.875         -53.4334        -126.877       -0.0149986         145.994
0.576                  -0.898075        -163.436         -53.3201        -128.134         -53.3201        -128.136       -0.0151512         145.921
0.577                  -0.928823         -164.24          -53.204        -129.397         -53.2039        -129.399       -0.0153058         145.848
0.578                  -0.961326        -165.054          -53.085        -130.667          -53.085        -130.669       -0.0154622         145.774
0.579                   -0.99569        -165.877         -52.9633        -131.943         -52.9632        -131.945       -0.0156204           145.7
0.58                    -1.03203        -166.709         -52.8387        -133.228         -52.8387         -133.23       -0.0157805         145.627
0.581                   -1.07046        -167.551         -52.7114        -134.521         -52.7113        -134.523       -0.0159426         145.553
0.582                   -1.11111        -168.401         -52.5812        -135.824         -52.5812        -135.826       -0.0161065         145.479
0.583                   -1.15411        -169.261         -52.4484        -137.138         -52.4483         -137.14       -0.0162723         145.404
0.584                   -1.19961         -170.13         -52.3128        -138.465         -52.3128        -138.467         -0.01644          145.33
0.585                   -1.24774        -171.008         -52.1746        -139.805         -52.1746        -139.806       -0.0166096         145.256
0.586                   -1.29867        -171.894         -52.0337        -141.159         -52.0337        -141.161       -0.0167812         145.181
0.587                   -1.35256        -172.788         -51.8904        -142.529         -51.8904        -142.531       -0.0169547         145.106
0.588                   -1.40959        -173.689         -51.7446        -143.916         -51.7446        -143.918       -0.0171302         145.031
0.589                   -1.46991        -174.598         -51.5964        -145.322         -51.5964        -145.323       -0.0173076         144.956
0.59                    -1.53374        -175.513          -51.446        -146.746         -51.4461        -146.748        -0.017487          144.88
0.591                   -1.60125        -176.433         -51.2935        -148.191         -51.2936        -148.193       -0.0176685         144.805
0.592                   -1.67265        -177.359         -51.1391        -149.658         -51.1391         -149.66       -0.0178519         144.729
0.593                   -1.74814        -178.288         -50.9828        -151.148         -50.9828         -151.15       -0.0180375         144.653
0.594                   -1.82794         -179.22         -50.8249        -152.662         -50.8249        -152.664        -0.018225         144.577
0.595                   -1.91226         179.846         -50.6655        -154.201         -50.6656        -154.203       -0.0184147         144.501
0.596                   -2.00132         178.913          -50.505        -155.767          -50.505        -155.768       -0.0186065         144.424
0.597                   -2.09533         177.981         -50.3434        -157.359         -50.3435        -157.361       -0.0188004         144.348
0.598                   -2.19452         177.053         -50.1811         -158.98         -50.1812        -158.981       -0.0189965         144.271
0.599                   -2.29909          176.13         -50.0184         -160.63         -50.0185        -160.631       -0.0191948         144.194
0.6                     -2.40925         175.216         -49.8555        -162.309         -49.8555         -162.31       -0.0193954         144.117
0.601                   -2.52519         174.312         -49.6927        -164.019         -49.6928         -164.02       -0.0195981         144.039
0.602                    -2.6471         173.422         -49.5304        -165.759         -49.5305         -165.76       -0.0198032         143.962
0.603                   -2.77511         172.549         -49.3689         -167.53          -49.369         -167.53       -0.0200107         143.884
0.604                   -2.90935         171.697         -49.2086        -169.332         -49.2087        -169.332       -0.0202205         143.806
0.605                   -3.04991         170.869         -49.0498        -171.164         -49.0499        -171.165       -0.0204327         143.728
0.606                   -3.19684         170.069         -48.8929        -173.027          -48.893        -173.027       -0.0206474          143.65
0.607                   -3.35011         169.303         -48.7383         -174.92         -48.7384         -174.92       -0.0208646         143.571
0.608                   -3.50966         168.575         -48.5864        -176.841         -48.5865        -176.841       -0.0210844         143.492
0.609                   -3.67531          167.89         -48.4376         -178.79         -48.4376         -178.79       -0.0213067         143.413
0.61                    -3.84682         167.254         -48.2921         179.234         -48.2922         179.234       -0.0215317         143.334
0.611                   -4.02384         166.672         -48.1504         177.234         -48.1505         177.234       -0.0217595         143.255
0.612                   -4.20589         166.151         -48.0129         175.211         -48.0129         175.211         -0.02199         143.175
0.613                   -4.39235         165.696         -47.8797         173.167         -47.8798         173.167       -0.0222233         143.095
0.614                   -4.58248         165.314         -47.7513         171.105         -47.7513         171.105       -0.0224595         143.015
0.615                   -4.77536         165.009         -47.6277         169.028         -47.6278         169.028       -0.0226986         142.935
0.616                   -4.96989         164.788         -47.5094         166.937         -47.5094         166.937       -0.0229408         142.854
0.617                   -5.16482         164.654         -47.3963         164.837         -47.3963         164.837        -0.023186         142.773
0.618                   -5.35869         164.613         -47.2887         162.729         -47.2887         162.729       -0.0234344         142.692
0.619                   -5.54991         164.666         -47.1865         160.618         -47.1865         160.618       -0.0236861         142.611
0.62                    -5.73673         164.815         -47.0899         158.506         -47.0899         158.506        -0.023941         142.529
0.621                   -5.91725          165.06         -46.9988         156.397         -46.9988         156.397       -0.0241993         142.447
0.622                   -6.08953         165.399         -46.9131         154.293         -46.9131         154.293       -0.0244611         142.365
0.623                   -6.25158         165.827         -46.8327         152.198         -46.8327         152.197       -0.0247264         142.283
0.624                   -6.40146         166.337         -46.7574         150.114         -46.7573         150.113       -0.0249953         142.201
0.625                   -6.53734         166.922          -46.687         148.044         -46.6869         148.044       -0.0252679         142.118
0.626                   -6.65757          167.57         -46.6212         145.991         -46.6212          145.99       -0.0255444         142.035
0.627                   -6.76079         168.267         -46.5598         143.956         -46.5598         143.956       -0.0258247         141.951
0.628                   -6.84595             169         -46.5026         141.943         -46.5025         141.942        -0.026109         141.868
0.629                   -6.91238         169.752          -46.449         139.952          -46.449         139.952       -0.0263974         141.784
0.63                    -6.95984         170.508         -46.3988         137.985         -46.3988         137.985         -0.02669           141.7
0.631                   -6.98849         171.251         -46.3517         136.044         -46.3517         136.044       -0.0269869         141.615
0.632                   -6.99891         171.966         -46.3073          134.13         -46.3073         134.129       -0.0272882         141.531
0.633                   -6.99201         172.638         -46.2652         132.243         -46.2651         132.242        -0.027594         141.446
0.634                   -6.96904         173.255          -46.225         130.383          -46.225         130.383       -0.0279044          141.36
0.635                   -6.93143         173.807         -46.1864         128.552         -46.1864         128.551       -0.0282195         141.275
0.636                   -6.88083         174.283         -46.1491         126.749          -46.149         126.748       -0.0285395         141.189
0.637                   -6.81892         174.679         -46.1126         124.974         -46.1126         124.974       -0.0288644         141.103
0.638                   -6.74743         174.988         -46.0768         123.227         -46.0768         123.227       -0.0291944         141.016
0.639                   -6.66807         175.209         -46.0412         121.508         -46.0412         121.507       -0.0295297         140.929
0.64                    -6.58244          175.34         -46.0056         119.815         -46.0056         119.814       -0.0298703         140.842
0.641                   -6.49207         175.382         -45.9697         118.149         -45.9697         118.148       -0.0302163         140.755
0.642                   -6.39833         175.335         -45.9333         116.508         -45.9333         116.507        -0.030568         140.667
0.643                   -6.30248         175.201          -45.896         114.891         -45.8961          114.89       -0.0309254         140.579
0.644                   -6.20562         174.985         -45.8578         113.298         -45.8579         113.297       -0.0312888          140.49
0.645                   -6.10872         174.688         -45.8184         111.727         -45.8184         111.726       -0.0316581         140.401
0.646                   -6.01261         174.315         -45.7776         110.178         -45.7776         110.177       -0.0320337         140.312
0.647                   -5.91801         173.869         -45.7352         108.649         -45.7353         108.648       -0.0324156         140.223
0.648                   -5.82552         173.355         -45.6912          107.14         -45.6912         107.139        -0.032804         140.133
0.649                   -5.73564         172.775         -45.6453         105.648         -45.6453         105.647        -0.033199         140.043
0.65                    -5.64879         172.134         -45.5974         104.173         -45.5975         104.172       -0.0336009         139.952
0.651                   -5.56529         171.434         -45.5475         102.714         -45.5476         102.713       -0.0340098         139.861
0.652                   -5.48543         170.681         -45.4954          101.27         -45.4955         101.269       -0.0344258          139.77
0.653                   -5.40941         169.875         -45.4411         99.8384         -45.4412         99.8376       -0.0348492         139.678
0.654                    -5.3374         169.021         -45.3845         98.4195         -45.3846         98.4186         -0.03528         139.586
0.655                   -5.26953         168.121         -45.3256         97.0116         -45.3257         97.0108       -0.0357186         139.493
0.656                    -5.2059         167.177         -45.2642         95.6137         -45.2643         95.6129       -0.0361651           139.4
0.657                   -5.14656         166.192         -45.2004         94.2247         -45.2005         94.2239       -0.0366197         139.307
0.658                   -5.09157         165.167         -45.1342         92.8434         -45.1343         92.8426       -0.0370825         139.213
0.659                   -5.04096         164.105         -45.0655         91.4689         -45.0656         91.4681       -0.0375539         139.119
0.66                    -4.99474         163.007         -44.9942         90.1001         -44.9943         90.0993       -0.0380339         139.025
0.661                   -4.95292         161.874         -44.9205         88.7359         -44.9206         88.7352       -0.0385229          138.93
0.662                    -4.9155         160.708         -44.8443         87.3754         -44.8444         87.3747       -0.0390209         138.834
0.663                   -4.88248          159.51         -44.7656         86.0176         -44.7657          86.017       -0.0395283         138.738
0.664                   -4.85384         158.281         -44.6844         84.6617         -44.6845          84.661       -0.0400453         138.642
0.665                    -4.8296         157.021         -44.6007         83.3065         -44.6008         83.3059       -0.0405722         138.545
0.666                   -4.80973         155.731         -44.5147         81.9513         -44.5148         81.9507        -0.041109         138.448
0.667                   -4.79424         154.412         -44.4262         80.5952         -44.4263         80.5946       -0.0416562          138.35
0.668                   -4.78312         153.064         -44.3353         79.2373         -44.3354         79.2368       -0.0422139         138.252
0.669                   -4.77639         151.688         -44.2422         77.8768         -44.2423         77.8763       -0.0427824         138.154
0.67                    -4.77406         150.284         -44.1467         76.5128         -44.1468         76.5123        -0.043362         138.055
0.671                   -4.77613         148.851          -44.049         75.1447         -44.0491         75.1442        -0.043953         137.955
0.672                   -4.78263          147.39         -43.9491         73.7715         -43.9492         73.7711       -0.0445556         137.855
0.673                    -4.7936         145.901          -43.847         72.3926         -43.8471         72.3922       -0.0451701         137.754
0.674                   -4.80907         144.384         -43.7429         71.0073          -43.743         71.0069       -0.0457968         137.653
0.675                   -4.82908         142.838         -43.6368         69.6147         -43.6369         69.6143        -0.046436         137.551
0.676                   -4.85369         141.263         -43.5287         68.2143         -43.5288         68.2139       -0.0470881         137.449
0.677                   -4.88297          139.66         -43.4188         66.8053         -43.4188          66.805       -0.0477532         137.346
0.678                   -4.91698         138.026          -43.307         65.3872         -43.3071         65.3869       -0.0484319         137.243
0.679                    -4.9558         136.363         -43.1935         63.9592         -43.1936         63.9589       -0.0491243         137.139
0.68                    -4.99952         134.668         -43.0784         62.5208         -43.0784         62.5205       -0.0498309         137.035
0.681                   -5.04825         132.943         -42.9617         61.0714         -42.9617         61.0711        -0.050552          136.93
0.682                    -5.1021         131.185         -42.8435         59.6104         -42.8435         59.6102       -0.0512879         136.824
0.683                   -5.16118         129.394         -42.7239         58.1373          -42.724         58.1371       -0.0520391         136.718
0.684                   -5.22563          127.57         -42.6031         56.6516         -42.6031         56.6514       -0.0528058         136.611
0.685                   -5.29559         125.711          -42.481         55.1528         -42.4811         55.1526       -0.0535886         136.503
0.686                   -5.37122         123.817         -42.3579         53.6404          -42.358         53.6403       -0.0543877         136.395
0.687                   -5.45267         121.886         -42.2338         52.1141         -42.2339         52.1139       -0.0552037         136.286
0.688                   -5.54014         119.917         -42.1089         50.5733          -42.109         50.5732       -0.0560369         136.177
0.689                    -5.6338         117.909         -41.9832         49.0178         -41.9833         49.0177       -0.0568877         136.067
0.69                    -5.73385         115.861         -41.8569         47.4473         -41.8569         47.4472       -0.0577567         135.956
0.691                   -5.84052          113.77         -41.7301         45.8614         -41.7301         45.8613       -0.0586443         135.845
0.692                   -5.95402         111.637         -41.6029         44.2599         -41.6029         44.2598       -0.0595509         135.733
0.693                   -6.07458         109.458         -41.4754         42.6426         -41.4754         42.6426       -0.0604771          135.62
0.694                   -6.20246         107.232         -41.3478         41.0094         -41.3479         41.0093       -0.0614233         135.506
0.695                    -6.3379         104.957         -41.2203         39.3601         -41.2203           39.36       -0.0623901         135.392
0.696                   -6.48119         102.632         -41.0929         37.6947         -41.0929         37.6946       -0.0633779         135.277