! TOUCHSTONE file generated by CST MICROWAVE STUDIO
! Date and time: Mon Nov 30 09:06:28 2020
! Project name: Scenario_1_Planar_Body_Tissue_Out_of_Line_v2.cst
! Parameters = {dy1=-242.2; L_HA=400; Ltissue=700; MT=2.54; Rad_Dielectric=30; Rad_Lower=7.3; Rad_Upper=30; Wtissue=700; a_HA=580; a_WG=246; b_HA=500; b_WG=121; c_HA=0; c_WG=187; d_feed=85; dx1=346; h_feed=15; h_lower=18; h_upper=40; hfat=3; hgap=25; hmuscle=50; hskin=1.5}
! Header version: 2018
! Port assignment regex: !\s*Touchstone port\s*([0-9]+)\s*=\s*(CST MWS port|CST DS port)\s*([0-9]+|Zmin|Zmax)\s*\(\"(.*)\"\)(\s*mode\s*([0-9]+))?.*
! Touchstone port assignment:
! Touchstone port 1 = CST MWS port 1 ("")
! Touchstone port 2 = CST MWS port 2 ("")
# GHz S DB R 50
0.5                     -0.24591        -121.785         -57.4548         13.8237         -57.4548         13.8242      -0.00831683         151.144
0.501                  -0.248124        -122.201         -57.2017         12.9439         -57.2029         12.9284      -0.00843499         151.079
0.502                  -0.250393        -122.619          -56.944         12.0321         -56.9465         12.0003       -0.0085506         151.014
0.503                  -0.252718        -123.039         -56.6815          11.086         -56.6854         11.0375      -0.00866352         150.949
0.504                    -0.2551        -123.462         -56.4142         10.1028         -56.4198         10.0375      -0.00877363         150.884
0.505                  -0.257541        -123.887          -56.142         9.07972         -56.1493         8.99732       -0.0088808         150.819
0.506                  -0.260042        -124.314         -55.8648         8.01363         -55.8741         7.91392      -0.00898489         150.754
0.507                  -0.262604        -124.743         -55.5826         6.90107          -55.594         6.78391      -0.00908577         150.689
0.508                  -0.265228        -125.175         -55.2953         5.73831         -55.3091          5.6036      -0.00918332         150.624
0.509                  -0.267917        -125.609          -55.003         4.52125         -55.0194         4.36898      -0.00927741         150.558
0.51                   -0.270672        -126.045         -54.7056         3.24544         -54.7249          3.0757      -0.00936791         150.493
0.511                  -0.273494        -126.484         -54.4033         1.90605         -54.4257         1.71905       -0.0094547         150.428
0.512                  -0.276386        -126.925         -54.0962        0.497814         -54.1221        0.293912      -0.00953767         150.362
0.513                  -0.279349        -127.369         -53.7846       -0.984931         -53.8142        -1.20518      -0.00961673         150.296
0.514                  -0.282385        -127.816         -53.4686        -2.54829         -53.5024        -2.78412      -0.00969178         150.231
0.515                  -0.285496        -128.265         -53.1489        -4.19881         -53.1871        -4.44917      -0.00976275         150.165
0.516                  -0.288685        -128.717         -52.8257        -5.94341         -52.8689        -6.20693      -0.00982957         150.099
0.517                  -0.291953        -129.172            -52.5        -7.78939         -52.5485        -8.06432      -0.00989221         150.033
0.518                  -0.295304        -129.629         -52.1724        -9.74434         -52.2267        -10.0285      -0.00995066         149.967
0.519                  -0.298741        -130.089         -51.8442         -11.816         -51.9046        -12.1065       -0.0100049         149.901
0.52                   -0.302264        -130.552         -51.5165         -14.012         -51.5836        -14.3057        -0.010055         149.834
0.521                  -0.305879        -131.018          -51.191        -16.3399         -51.2651        -16.6328        -0.010101         149.768
0.522                  -0.309587        -131.487         -50.8695        -18.8066         -50.9509        -19.0938        -0.010143         149.701
0.523                  -0.313392        -131.959         -50.5541        -21.4178         -50.6433         -21.694       -0.0101811         149.635
0.524                  -0.317297        -132.435         -50.2474         -24.178         -50.3445        -24.4369       -0.0102155         149.568
0.525                  -0.321307        -132.913         -49.9522        -27.0895         -50.0573        -27.3242       -0.0102463         149.501
0.526                  -0.325424        -133.395         -49.6716        -30.1519         -49.7846        -30.3546        -0.010274         149.434
0.527                  -0.329652         -133.88         -49.4088        -33.3612         -49.5295        -33.5241       -0.0102986         149.367
0.528                  -0.333997        -134.368         -49.1674        -36.7096         -49.2952        -36.8245       -0.0103205           149.3
0.529                  -0.338462         -134.86         -48.9507        -40.1846         -49.0848        -40.2436       -0.0103401         149.233
0.53                   -0.343052        -135.355         -48.7619         -43.769         -48.9013        -43.7648       -0.0103578         149.165
0.531                  -0.347773        -135.854         -48.6039         -47.441         -48.7474        -47.3672       -0.0103739         149.098
0.532                  -0.352628        -136.357         -48.4789        -51.1744          -48.625        -51.0264       -0.0103889          149.03
0.533                  -0.357625        -136.863         -48.3886        -54.9399         -48.5356        -54.7148       -0.0104033         148.962
0.534                  -0.362768        -137.373         -48.3335         -58.706         -48.4798        -58.4031       -0.0104176         148.894
0.535                  -0.368064        -137.887         -48.3134         -62.441         -48.4572        -62.0617       -0.0104322         148.826
0.536                   -0.37352        -138.405          -48.327        -66.1141         -48.4668        -65.6619       -0.0104477         148.758
0.537                  -0.379142        -138.927         -48.3723        -69.6973         -48.5067        -69.1776       -0.0104645         148.689
0.538                  -0.384938        -139.453         -48.4467        -73.1661         -48.5744        -72.5856       -0.0104832         148.621
0.539                  -0.390915        -139.983         -48.5469        -76.5007          -48.667        -75.8671       -0.0105042         148.552
0.54                   -0.397082        -140.518         -48.6694        -79.6859         -48.7811        -79.0075       -0.0105281         148.483
0.541                  -0.403447        -141.057         -48.8106        -82.7114         -48.9135        -81.9966       -0.0105552         148.414
0.542                  -0.410019          -141.6          -48.967        -85.5712         -49.0608        -84.8282       -0.0105859         148.345
0.543                  -0.416808        -142.149          -49.135        -88.2632         -49.2198        -87.4997       -0.0106208         148.276
0.544                  -0.423825        -142.702         -49.3117        -90.7883         -49.3874        -90.0114         -0.01066         148.207
0.545                  -0.431079        -143.259          -49.494          -93.15          -49.561        -92.3663       -0.0107039         148.137
0.546                  -0.438584        -143.822         -49.6794        -95.3538          -49.738        -94.5689       -0.0107528         148.067
0.547                   -0.44635         -144.39         -49.8658        -97.4063         -49.9164        -96.6251       -0.0108068         147.998
0.548                  -0.454392        -144.963         -50.0511         -99.315         -50.0941        -98.5418       -0.0108663         147.928
0.549                  -0.462722        -145.541         -50.2338        -101.088         -50.2697        -100.326       -0.0109312         147.858
0.55                   -0.471356        -146.125         -50.4124        -102.734         -50.4417        -101.987       -0.0110016         147.788
0.551                  -0.480308        -146.714         -50.5859         -104.26         -50.6089         -103.53       -0.0110777         147.717
0.552                  -0.489596        -147.309         -50.7531        -105.675         -50.7705        -104.964       -0.0111595         147.647
0.553                  -0.499236         -147.91         -50.9133        -106.987         -50.9254        -106.297       -0.0112468         147.576
0.554                  -0.509249        -148.516         -51.0658        -108.203         -51.0731        -107.535       -0.0113397         147.506
0.555                  -0.519653        -149.129         -51.2101         -109.33          -51.213        -108.686       -0.0114381         147.435
0.556                  -0.530469        -149.748         -51.3457        -110.376         -51.3445        -109.755       -0.0115418         147.364
0.557                   -0.54172        -150.374         -51.4722        -111.345         -51.4674         -110.75       -0.0116508         147.293
0.558                   -0.55343        -151.006         -51.5893        -112.246         -51.5812        -111.675       -0.0117649         147.222
0.559                  -0.565625        -151.644         -51.6968        -113.083         -51.6857        -112.537       -0.0118838         147.151
0.56                   -0.578332         -152.29         -51.7944        -113.861         -51.7807        -113.341       -0.0120076         147.079
0.561                  -0.591579        -152.943          -51.882        -114.587         -51.8659        -114.092       -0.0121359         147.008
0.562                  -0.605398        -153.602         -51.9594        -115.265         -51.9413        -114.795       -0.0122686         146.936
0.563                  -0.619821         -154.27         -52.0266        -115.899         -52.0067        -115.454       -0.0124055         146.864
0.564                  -0.634885        -154.945         -52.0834        -116.494          -52.062        -116.074       -0.0125464         146.793
0.565                  -0.650626        -155.627         -52.1299        -117.055         -52.1072         -116.66       -0.0126911         146.721
0.566                  -0.667085        -156.318         -52.1659        -117.586         -52.1422        -117.214       -0.0128394         146.649
0.567                  -0.684306        -157.017         -52.1914         -118.09         -52.1669        -117.742       -0.0129912         146.576
0.568                  -0.702333        -157.724         -52.2065        -118.572         -52.1814        -118.246       -0.0131463         146.504
0.569                  -0.721217        -158.439         -52.2111        -119.035         -52.1856        -118.732       -0.0133045         146.432
0.57                   -0.741011        -159.164         -52.2053        -119.483         -52.1795        -119.202       -0.0134657         146.359
0.571                  -0.761771        -159.897         -52.1891         -119.92         -52.1633         -119.66       -0.0136296         146.286
0.572                  -0.783557         -160.64         -52.1626         -120.35         -52.1368         -120.11       -0.0137962         146.214
0.573                  -0.806434        -161.392         -52.1258        -120.775         -52.1003        -120.554       -0.0139654         146.141
0.574                  -0.830473        -162.153         -52.0789        -121.199         -52.0537        -120.997       -0.0141369         146.068
0.575                  -0.855748        -162.925         -52.0218        -121.626         -51.9971        -121.442       -0.0143107         145.994
0.576                   -0.88234        -163.706         -51.9548        -122.059         -51.9307        -121.892       -0.0144867         145.921
0.577                  -0.910333        -164.498          -51.878          -122.5         -51.8546        -122.349       -0.0146647         145.848
0.578                  -0.939821          -165.3         -51.7914        -122.954         -51.7689        -122.818       -0.0148448         145.774
0.579                  -0.970903        -166.113         -51.6953        -123.422         -51.6737        -123.302       -0.0150267           145.7
0.58                    -1.00368        -166.936         -51.5899         -123.91         -51.5692        -123.802       -0.0152105         145.626
0.581                   -1.03828         -167.77         -51.4753        -124.418         -51.4556        -124.324        -0.015396         145.552
0.582                   -1.07481        -168.616         -51.3517        -124.951         -51.3331        -124.868       -0.0155833         145.478
0.583                   -1.11342        -169.473         -51.2194        -125.511         -51.2019        -125.439       -0.0157722         145.404
0.584                   -1.15423        -170.341         -51.0786        -126.101         -51.0622        -126.039       -0.0159627         145.329
0.585                   -1.19741         -171.22         -50.9295        -126.723         -50.9143        -126.671       -0.0161548         145.255
0.586                   -1.24311        -172.111         -50.7724        -127.381         -50.7585        -127.337       -0.0163484          145.18
0.587                   -1.29151        -173.013         -50.6077        -128.078          -50.595        -128.041       -0.0165436         145.105
0.588                    -1.3428        -173.927         -50.4356        -128.815         -50.4241        -128.785       -0.0167403          145.03
0.589                   -1.39717        -174.852         -50.2565        -129.596         -50.2461        -129.572       -0.0169385         144.954
0.59                    -1.45485        -175.788         -50.0706        -130.422         -50.0615        -130.404       -0.0171382         144.879
0.591                   -1.51606        -176.735         -49.8785        -131.297         -49.8705        -131.283       -0.0173393         144.803
0.592                   -1.58105        -177.693         -49.6804        -132.223         -49.6735        -132.213        -0.017542         144.728
0.593                   -1.65008         -178.66         -49.4768        -133.202          -49.471        -133.195       -0.0177462         144.652
0.594                   -1.72342        -179.637         -49.2681        -134.236         -49.2634        -134.231       -0.0179518         144.576
0.595                   -1.80138         179.378         -49.0548        -135.327         -49.0512        -135.324        -0.018159         144.499
0.596                   -1.88425         178.385         -48.8374        -136.478         -48.8348        -136.476       -0.0183678         144.423
0.597                   -1.97238         177.385         -48.6164        -137.689         -48.6147        -137.689       -0.0185781         144.346
0.598                    -2.0661          176.38         -48.3924        -138.964         -48.3916        -138.964         -0.01879         144.269
0.599                   -2.16578         175.372         -48.1659        -140.303         -48.1659        -140.303       -0.0190035         144.192
0.6                     -2.27179         174.362         -47.9376        -141.707         -47.9383        -141.707       -0.0192188         144.115
0.601                   -2.38453         173.352         -47.7081        -143.179         -47.7095        -143.177       -0.0194357         144.038
0.602                   -2.50438         172.346         -47.4781        -144.718         -47.4801        -144.715       -0.0196543          143.96
0.603                   -2.63175         171.346         -47.2482        -146.325         -47.2508        -146.321       -0.0198747         143.882
0.604                   -2.76704         170.356         -47.0192        -148.001         -47.0223        -147.995       -0.0200969         143.805
0.605                   -2.91065          169.38         -46.7919        -149.744         -46.7954        -149.736       -0.0203211         143.726
0.606                   -3.06295         168.422          -46.567        -151.555         -46.5709        -151.546       -0.0205471         143.648
0.607                    -3.2243         167.488         -46.3454        -153.433         -46.3495        -153.421       -0.0207751         143.569
0.608                     -3.395         166.584         -46.1277        -155.375          -46.132        -155.361       -0.0210051         143.491
0.609                   -3.57531         165.717         -45.9147        -157.381         -45.9192        -157.364       -0.0212372         143.412
0.61                     -3.7654         164.894         -45.7073        -159.446         -45.7118        -159.428       -0.0214715         143.332
0.611                   -3.96534         164.124         -45.5061        -161.569         -45.5107        -161.548        -0.021708         143.253
0.612                   -4.17506         163.416         -45.3119        -163.745         -45.3164        -163.722       -0.0219467         143.173
0.613                   -4.39435          162.78         -45.1254         -165.97         -45.1298        -165.946       -0.0221878         143.093
0.614                   -4.62275         162.227          -44.947         -168.24         -44.9513        -168.214       -0.0224313         143.013
0.615                   -4.85958         161.768         -44.7773        -170.549         -44.7814        -170.522       -0.0226772         142.933
0.616                   -5.10387         161.417         -44.6168        -172.892         -44.6207        -172.864       -0.0229257         142.852
0.617                   -5.35427         161.184         -44.4658        -175.263         -44.4694        -175.234       -0.0231768         142.772
0.618                   -5.60906         161.083         -44.3245        -177.656         -44.3279        -177.626       -0.0234307         142.691
0.619                   -5.86607         161.125         -44.1931         179.935         -44.1962         179.966       -0.0236873         142.609
0.62                    -6.12267         161.319         -44.0716         177.517         -44.0744         177.547       -0.0239468         142.528
0.621                   -6.37573         161.674         -43.9599         175.095         -43.9624         175.125       -0.0242092         142.446
0.622                   -6.62168         162.196         -43.8579         172.675         -43.8601         172.705       -0.0244746         142.364
0.623                   -6.85656         162.884         -43.7652         170.263         -43.7671         170.293       -0.0247432         142.282
0.624                   -7.07614         163.735         -43.6816         167.865         -43.6832         167.893        -0.025015         142.199
0.625                    -7.2761         164.739         -43.6065         165.484         -43.6079         165.512       -0.0252901         142.116
0.626                   -7.45226         165.879         -43.5396         163.127         -43.5407         163.153       -0.0255686         142.033
0.627                   -7.60087         167.133         -43.4802         160.795         -43.4811         160.821       -0.0258506          141.95
0.628                   -7.71884         168.472         -43.4277         158.494         -43.4284         158.518       -0.0261362         141.866
0.629                   -7.80407         169.863         -43.3816         156.225         -43.3821         156.248       -0.0264255         141.783
0.63                    -7.85556         171.271         -43.3412         153.991         -43.3415         154.012       -0.0267186         141.698
0.631                   -7.87348         172.659         -43.3059         151.794         -43.3061         151.814       -0.0270156         141.614
0.632                   -7.85921         173.994          -43.275         149.635         -43.2751         149.653       -0.0273167         141.529
0.633                   -7.81508         175.245          -43.248         147.515          -43.248         147.532       -0.0276218         141.444
0.634                   -7.74423         176.386         -43.2242         145.435         -43.2241          145.45       -0.0279313         141.359
0.635                   -7.65028         177.398         -43.2031         143.394          -43.203         143.408        -0.028245         141.273
0.636                    -7.5371         178.266         -43.1842         141.393          -43.184         141.406       -0.0285633         141.187
0.637                   -7.40858         178.985         -43.1668          139.43         -43.1666         139.442       -0.0288862         141.101
0.638                    -7.2684         179.549         -43.1507         137.506         -43.1504         137.517       -0.0292137         141.015
0.639                   -7.11996         179.961         -43.1352          135.62         -43.1349         135.629       -0.0295462         140.928
0.64                    -6.96624        -179.775           -43.12          133.77         -43.1197         133.778       -0.0298837         140.841
0.641                   -6.80985        -179.653         -43.1047         131.954         -43.1044         131.962       -0.0302262         140.753
0.642                   -6.65296        -179.665          -43.089         130.173         -43.0888          130.18       -0.0305741         140.665
0.643                   -6.49735        -179.802         -43.0726         128.424         -43.0723          128.43       -0.0309273         140.577
0.644                   -6.34446         179.945         -43.0551         126.706         -43.0549         126.711       -0.0312861         140.489
0.645                   -6.19542         179.585         -43.0364         125.018         -43.0362         125.022       -0.0316507           140.4
0.646                   -6.05109         179.128         -43.0162         123.357          -43.016         123.361        -0.032021         140.311
0.647                   -5.91212          178.58         -42.9943         121.723         -42.9941         121.726       -0.0323974         140.221
0.648                   -5.77897         177.951         -42.9705         120.114         -42.9704         120.116       -0.0327799         140.131
0.649                   -5.65194         177.247         -42.9447         118.528         -42.9446          118.53       -0.0331688         140.041
0.65                    -5.53122         176.475         -42.9167         116.964         -42.9167         116.966       -0.0335642         139.951
0.651                   -5.41691         175.641         -42.8865         115.421         -42.8864         115.422       -0.0339663          139.86
0.652                   -5.30903         174.749         -42.8538         113.897         -42.8538         113.898       -0.0343752         139.768
0.653                   -5.20755         173.805         -42.8187          112.39         -42.8187         112.391       -0.0347911         139.676
0.654                    -5.1124         172.813         -42.7811           110.9         -42.7811           110.9       -0.0352143         139.584
0.655                   -5.02347         171.777         -42.7408         109.425         -42.7409         109.425       -0.0356449         139.492
0.656                   -4.94064         170.699         -42.6979         107.963         -42.6979         107.963        -0.036083         139.399
0.657                   -4.86377         169.582         -42.6523         106.514         -42.6523         106.514        -0.036529         139.306
0.658                    -4.7927         168.429         -42.6039         105.076          -42.604         105.075        -0.036983         139.212
0.659                   -4.72731         167.242         -42.5528         103.648         -42.5529         103.647       -0.0374451         139.118
0.66                    -4.66743         166.023         -42.4989         102.229          -42.499         102.228       -0.0379157         139.023
0.661                   -4.61292         164.773         -42.4423         100.817         -42.4424         100.817        -0.038395         138.928
0.662                   -4.56365         163.493         -42.3829         99.4124          -42.383         99.4117       -0.0388831         138.833
0.663                   -4.51949         162.185         -42.3207         98.0132         -42.3208         98.0125       -0.0393804         138.737
0.664                   -4.48032         160.849         -42.2557         96.6185         -42.2559         96.6178       -0.0398869          138.64
0.665                   -4.44603         159.486         -42.1881         95.2275         -42.1882         95.2267       -0.0404031         138.544
0.666                   -4.41651         158.096         -42.1177          93.839         -42.1178         93.8383       -0.0409291         138.446
0.667                   -4.39169          156.68         -42.0446         92.4522         -42.0447         92.4515       -0.0414651         138.349
0.668                   -4.37147         155.238         -41.9688         91.0662          -41.969         91.0654       -0.0420116          138.25
0.669                    -4.3558          153.77         -41.8904         89.6799         -41.8906         89.6792       -0.0425686         138.152
0.67                    -4.34462         152.277         -41.8095         88.2927         -41.8096          88.292       -0.0431366         138.052
0.671                   -4.33788         150.757          -41.726         86.9035         -41.7261         86.9029       -0.0437157         137.953
0.672                   -4.33557          149.21           -41.64         85.5116         -41.6401          85.511       -0.0443063         137.853
0.673                   -4.33765         147.638         -41.5515         84.1162         -41.5516         84.1156       -0.0449086         137.752
0.674                   -4.34412         146.038         -41.4606         82.7164         -41.4607         82.7159       -0.0455231         137.651
0.675                   -4.35498          144.41         -41.3674         81.3116         -41.3675         81.3111       -0.0461499         137.549
0.676                   -4.37025         142.755          -41.272         79.9008          -41.272         79.9003       -0.0467894         137.447
0.677                   -4.38996         141.071         -41.1743         78.4835         -41.1744          78.483        -0.047442         137.344
0.678                   -4.41415         139.357         -41.0745         77.0588         -41.0745         77.0584        -0.048108          137.24
0.679                   -4.44286         137.614         -40.9726          75.626         -40.9726         75.6256       -0.0487877         137.136
0.68                    -4.47615         135.839         -40.8687         74.1846         -40.8688         74.1842       -0.0494815         137.032
0.681                   -4.51411         134.033          -40.763         72.7337          -40.763         72.7333       -0.0501897         136.927
0.682                   -4.55681         132.194         -40.6554         71.2728         -40.6554         71.2724       -0.0509128         136.821
0.683                   -4.60435         130.321          -40.546         69.8012          -40.546         69.8008       -0.0516511         136.714
0.684                   -4.65684         128.414         -40.4351         68.3183         -40.4351         68.3179        -0.052405         136.607
0.685                    -4.7144          126.47         -40.3226         66.8235         -40.3226         66.8232        -0.053175           136.5
0.686                   -4.77714          124.49         -40.2087         65.3163         -40.2087          65.316       -0.0539614         136.392
0.687                   -4.84523          122.47         -40.0935         63.7962         -40.0935         63.7959       -0.0547647         136.283
0.688                   -4.91879         120.411         -39.9771         62.2626          -39.977         62.2623       -0.0555853         136.173
0.689                   -4.99801         118.311         -39.8596         60.7151         -39.8595         60.7148       -0.0564237         136.063
0.69                    -5.08304         116.168         -39.7411         59.1532         -39.7411         59.1529       -0.0572804         135.952
0.691                   -5.17407         113.981         -39.6218         57.5766         -39.6218         57.5763       -0.0581558         135.841
0.692                    -5.2713         111.748         -39.5019         55.9849         -39.5018         55.9846       -0.0590504         135.728
0.693                    -5.3749         109.467         -39.3813         54.3778         -39.3813         54.3775       -0.0599648         135.615
0.694                   -5.48511         107.136         -39.2604          52.755         -39.2603         52.7547       -0.0608994         135.502
0.695                   -5.60212         104.753         -39.1392         51.1163         -39.1391          51.116       -0.0618549         135.387
0.696                   -5.72615         102.316         -39.0178         49.4615         -39.0178         49.4612       -0.0628317         135.272