! TOUCHSTONE file generated by CST MICROWAVE STUDIO
! Date and time: Sat Nov 14 19:59:16 2020
! Project name: Scenario_1_Planar_Body_Tissue_Out_of_Line.cst
! Parameters = {dy1=242.2; L_HA=400; Ltissue=700; MT=2.54; Rad_Dielectric=30; Rad_Lower=7.3; Rad_Upper=30; Wtissue=700; a_HA=580; a_WG=246; b_HA=500; b_WG=121; c_HA=0; c_WG=187; d_feed=85; dx1=693; h_feed=15; h_lower=18; h_upper=40; hfat=3; hgap=25; hmuscle=50; hskin=1.5}
! Header version: 2018
! Port assignment regex: !\s*Touchstone port\s*([0-9]+)\s*=\s*(CST MWS port|CST DS port)\s*([0-9]+|Zmin|Zmax)\s*\(\"(.*)\"\)(\s*mode\s*([0-9]+))?.*
! Touchstone port assignment:
! Touchstone port 1 = CST MWS port 1 ("")
! Touchstone port 2 = CST MWS port 2 ("")
# GHz S DB R 50
0.5                    -0.182263        -121.662         -62.6509          175.62         -62.6504          175.62      -0.00777177          151.15
0.501                  -0.184337        -122.085          -62.635         174.258         -62.6346         174.258       -0.0078303         151.085
0.502                  -0.186487        -122.511         -62.6164         172.879         -62.6161         172.879      -0.00788946         151.019
0.503                  -0.188716         -122.94         -62.5951         171.483         -62.5948         171.483      -0.00794927         150.954
0.504                  -0.191029        -123.371         -62.5709         170.071         -62.5707         170.071      -0.00800972         150.889
0.505                  -0.193428        -123.805         -62.5437         168.643         -62.5436         168.642      -0.00807083         150.823
0.506                  -0.195917        -124.242         -62.5136         167.198         -62.5134         167.197      -0.00813263         150.758
0.507                  -0.198501        -124.682         -62.4802         165.737         -62.4801         165.736       -0.0081951         150.692
0.508                  -0.201182        -125.125         -62.4436          164.26         -62.4436         164.259      -0.00825828         150.626
0.509                  -0.203967         -125.57         -62.4037         162.768         -62.4037         162.767      -0.00832218         150.561
0.51                   -0.206859        -126.019         -62.3604          161.26         -62.3604         161.259      -0.00838679         150.495
0.511                  -0.209863        -126.471         -62.3135         159.738         -62.3136         159.736      -0.00845215         150.429
0.512                  -0.212985        -126.926          -62.263         158.201         -62.2631         158.199      -0.00851826         150.363
0.513                  -0.216231        -127.384         -62.2088         156.649          -62.209         156.647      -0.00858514         150.297
0.514                  -0.219605        -127.845         -62.1509         155.084         -62.1511         155.082       -0.0086528          150.23
0.515                  -0.223115         -128.31         -62.0891         153.505         -62.0893         153.502      -0.00872125         150.164
0.516                  -0.226767        -128.778         -62.0233         151.913         -62.0236          151.91      -0.00879051         150.098
0.517                  -0.230569        -129.249         -61.9536         150.308         -61.9539         150.305       -0.0088606         150.031
0.518                  -0.234527        -129.724         -61.8798          148.69         -61.8801         148.687      -0.00893153         149.965
0.519                   -0.23865        -130.203         -61.8019         147.061         -61.8022         147.058      -0.00900331         149.898
0.52                   -0.242947        -130.685         -61.7197          145.42         -61.7202         145.417      -0.00907597         149.831
0.521                  -0.247426        -131.171         -61.6334         143.768         -61.6338         143.765      -0.00914952         149.765
0.522                  -0.252098        -131.661         -61.5428         142.106         -61.5432         142.102      -0.00922397         149.698
0.523                  -0.256973        -132.155         -61.4478         140.433         -61.4483         140.429      -0.00929934         149.631
0.524                  -0.262062        -132.652         -61.3485          138.75          -61.349         138.746      -0.00937566         149.564
0.525                  -0.267377        -133.154         -61.2448         137.058         -61.2453         137.054      -0.00945293         149.497
0.526                   -0.27293         -133.66         -61.1367         135.358         -61.1372         135.353      -0.00953118         149.429
0.527                  -0.278736         -134.17         -61.0241         133.648         -61.0247         133.643      -0.00961043         149.362
0.528                  -0.284808        -134.685         -60.9071          131.93         -60.9077         131.925      -0.00969069         149.294
0.529                  -0.291162        -135.204         -60.7857         130.204         -60.7863         130.199      -0.00977199         149.227
0.53                   -0.297815        -135.727         -60.6598         128.471         -60.6604         128.465      -0.00985434         149.159
0.531                  -0.304784        -136.255         -60.5295          126.73         -60.5301         126.724      -0.00993777         149.092
0.532                   -0.31209        -136.788         -60.3947         124.982         -60.3953         124.976       -0.0100223         149.024
0.533                  -0.319751        -137.326         -60.2555         123.227         -60.2561         123.221       -0.0101079         148.956
0.534                   -0.32779        -137.868         -60.1119         121.465         -60.1125         121.459       -0.0101947         148.888
0.535                  -0.336231        -138.416         -59.9639         119.696         -59.9645          119.69       -0.0102827          148.82
0.536                  -0.345099        -138.968         -59.8115         117.921         -59.8122         117.914       -0.0103718         148.751
0.537                  -0.354422        -139.526         -59.6549         116.138         -59.6555         116.132       -0.0104622         148.683
0.538                  -0.364227        -140.089         -59.4939         114.349         -59.4946         114.343       -0.0105538         148.615
0.539                  -0.374548        -140.658         -59.3287         112.553         -59.3294         112.547       -0.0106466         148.546
0.54                   -0.385417        -141.232         -59.1593          110.75           -59.16         110.744       -0.0107408         148.477
0.541                  -0.396871        -141.811         -58.9858         108.939         -58.9864         108.933       -0.0108363         148.409
0.542                   -0.40895        -142.397         -58.8081         107.121         -58.8088         107.115       -0.0109331          148.34
0.543                  -0.421694        -142.988         -58.6265         105.295         -58.6271         105.288       -0.0110313         148.271
0.544                  -0.435151        -143.585         -58.4408          103.46         -58.4414         103.453       -0.0111309         148.202
0.545                  -0.449368        -144.188         -58.2513         101.616         -58.2519         101.609       -0.0112319         148.132
0.546                  -0.464398        -144.798         -58.0579          99.762         -58.0585         99.7559       -0.0113344         148.063
0.547                  -0.480298        -145.413         -57.8607         97.8981         -57.8613         97.8921       -0.0114384         147.994
0.548                  -0.497128        -146.034         -57.6599         96.0233         -57.6605         96.0173       -0.0115439         147.924
0.549                  -0.514955        -146.662         -57.4555         94.1366         -57.4561         94.1308        -0.011651         147.854
0.55                   -0.533848        -147.296         -57.2475         92.2372         -57.2481         92.2315       -0.0117596         147.785
0.551                  -0.553882        -147.936         -57.0362         90.3242         -57.0368         90.3187       -0.0118699         147.715
0.552                   -0.57514        -148.582         -56.8215         88.3966         -56.8221         88.3913       -0.0119819         147.645
0.553                  -0.597707        -149.235         -56.6037         86.4533         -56.6043         86.4482       -0.0120956         147.575
0.554                  -0.621676        -149.893         -56.3828         84.4932         -56.3833         84.4882        -0.012211         147.505
0.555                  -0.647147        -150.558         -56.1589         82.5149         -56.1595         82.5101       -0.0123282         147.434
0.556                  -0.674226        -151.228         -55.9323         80.5174         -55.9328         80.5128       -0.0124472         147.364
0.557                  -0.703022        -151.903          -55.703         78.4991         -55.7035         78.4947        -0.012568         147.293
0.558                  -0.733657        -152.584         -55.4712         76.4586         -55.4717         76.4545       -0.0126908         147.222
0.559                  -0.766252        -153.269         -55.2371         74.3947         -55.2376         74.3908       -0.0128154         147.152
0.56                    -0.80094        -153.958         -55.0009         72.3057         -55.0014          72.302       -0.0129421         147.081
0.561                  -0.837856        -154.651         -54.7628         70.1901         -54.7633         70.1867       -0.0130707         147.009
0.562                   -0.87714        -155.347         -54.5231         68.0463         -54.5235         68.0432       -0.0132014         146.938
0.563                  -0.918934        -156.044          -54.282         65.8729         -54.2824           65.87       -0.0133342         146.867
0.564                  -0.963382        -156.743         -54.0397         63.6681         -54.0401         63.6656       -0.0134691         146.795
0.565                   -1.01063        -157.441         -53.7966         61.4305          -53.797         61.4282       -0.0136061         146.724
0.566                   -1.06081        -158.137         -53.5531         59.1585         -53.5534         59.1565       -0.0137453         146.652
0.567                   -1.11405         -158.83         -53.3094         56.8507         -53.3097          56.849       -0.0138867          146.58
0.568                   -1.17048        -159.518          -53.066         54.5057         -53.0663         54.5043       -0.0140304         146.508
0.569                   -1.23018        -160.199         -52.8232         52.1222         -52.8235          52.121       -0.0141763         146.436
0.57                    -1.29322         -160.87         -52.5816         49.6991         -52.5818         49.6982       -0.0143244         146.364
0.571                   -1.35965        -161.528         -52.3416         47.2354         -52.3418         47.2347       -0.0144749         146.291
0.572                   -1.42946        -162.172         -52.1037         44.7303         -52.1038         44.7299       -0.0146276         146.219
0.573                   -1.50257        -162.797         -51.8684         42.1834         -51.8686         42.1832       -0.0147826         146.146
0.574                   -1.57885        -163.401         -51.6364         39.5944         -51.6365         39.5945       -0.0149398         146.073
0.575                   -1.65809        -163.979         -51.4081         36.9635         -51.4082         36.9637       -0.0150994             146
0.576                   -1.73999        -164.528         -51.1842         34.2911         -51.1842         34.2915       -0.0152611         145.927
0.577                   -1.82414        -165.046         -50.9653         31.5781         -50.9653         31.5787        -0.015425         145.854
0.578                   -1.91002        -165.527         -50.7521         28.8258          -50.752         28.8265       -0.0155911         145.781
0.579                   -1.99698         -165.97          -50.545         26.0359         -50.5449         26.0367       -0.0157592         145.707
0.58                    -2.08427        -166.371         -50.3448         23.2108         -50.3446         23.2117       -0.0159293         145.633
0.581                   -2.17101        -166.728         -50.1519          20.353         -50.1517          20.354       -0.0161014          145.56
0.582                   -2.25623        -167.041         -49.9669         17.4659         -49.9667         17.4669       -0.0162753         145.486
0.583                   -2.33887        -167.309         -49.7904          14.553         -49.7901         14.5541       -0.0164509         145.412
0.584                   -2.41783        -167.533         -49.6226         11.6185         -49.6224         11.6195       -0.0166282         145.337
0.585                     -2.492        -167.716         -49.4641         8.66682         -49.4638         8.66779        -0.016807         145.263
0.586                   -2.56033        -167.862          -49.315         5.70269         -49.3147          5.7036       -0.0169873         145.188
0.587                   -2.62183        -167.976         -49.1756         2.73116         -49.1753           2.732        -0.017169         145.113
0.588                   -2.67568        -168.065         -49.0459       -0.242566         -49.0456       -0.241821       -0.0173518         145.039
0.589                   -2.72121        -168.137          -48.926        -3.21324         -48.9257        -3.21259       -0.0175359         144.964
0.59                      -2.758        -168.199         -48.8157         -6.1756         -48.8154        -6.17506        -0.017721         144.888
0.591                   -2.78585         -168.26          -48.715        -9.12452         -48.7147         -9.1241       -0.0179071         144.813
0.592                   -2.80482         -168.33         -48.6234        -12.0551         -48.6231        -12.0548       -0.0180942         144.737
0.593                    -2.8152        -168.417         -48.5407        -14.9626         -48.5404        -14.9624       -0.0182823         144.662
0.594                   -2.81746        -168.528         -48.4665        -17.8427         -48.4662        -17.8426       -0.0184713         144.586
0.595                   -2.81229         -168.67         -48.4001        -20.6917         -48.3998        -20.6917       -0.0186614          144.51
0.596                   -2.80048         -168.85          -48.341        -23.5059         -48.3408         -23.506       -0.0188524         144.433
0.597                   -2.78293        -169.071         -48.2887        -26.2826         -48.2885        -26.2828       -0.0190446         144.357
0.598                   -2.76055        -169.337         -48.2425        -29.0193         -48.2423        -29.0195       -0.0192379          144.28
0.599                   -2.73431         -169.65         -48.2018        -31.7139         -48.2016        -31.7142       -0.0194326         144.203
0.6                     -2.70511        -170.012         -48.1658        -34.3652         -48.1657        -34.3655       -0.0196287         144.126
0.601                   -2.67382        -170.422          -48.134         -36.972         -48.1339        -36.9724       -0.0198264         144.049
0.602                   -2.64125        -170.882         -48.1056        -39.5341         -48.1055        -39.5344       -0.0200258         143.972
0.603                   -2.60812        -171.388           -48.08        -42.0512           -48.08        -42.0515       -0.0202271         143.894
0.604                   -2.57507        -171.941         -48.0567        -44.5238         -48.0566         -44.524       -0.0204305         143.816
0.605                   -2.54267        -172.537         -48.0349        -46.9524         -48.0349        -46.9525       -0.0206362         143.738
0.606                   -2.51141        -173.177         -48.0142         -49.338         -48.0142        -49.3381       -0.0208443          143.66
0.607                   -2.48168        -173.856          -47.994         -51.682         -47.9941         -51.682        -0.021055         143.581
0.608                   -2.45385        -174.574         -47.9739        -53.9857          -47.974        -53.9856       -0.0212685         143.502
0.609                   -2.42819        -175.329         -47.9533        -56.2509         -47.9534        -56.2507       -0.0214849         143.424
0.61                    -2.40495        -176.118         -47.9319        -58.4793         -47.9321         -58.479       -0.0217044         143.344
0.611                   -2.38431        -176.939         -47.9093        -60.6729         -47.9095        -60.6725       -0.0219272         143.265
0.612                   -2.36645        -177.791         -47.8852        -62.8338         -47.8854        -62.8333       -0.0221534         143.185
0.613                   -2.35148        -178.672         -47.8592        -64.9642         -47.8594        -64.9635       -0.0223831         143.106
0.614                   -2.33951        -179.582          -47.831        -67.0661         -47.8313        -67.0653       -0.0226165         143.026
0.615                   -2.33064         179.483         -47.8006        -69.1418         -47.8008        -69.1409       -0.0228536         142.945
0.616                   -2.32494         178.521         -47.7676        -71.1936         -47.7678        -71.1926       -0.0230946         142.865
0.617                   -2.32248         177.536         -47.7318        -73.2237         -47.7321        -73.2226       -0.0233397         142.784
0.618                   -2.32332         176.527         -47.6932        -75.2342         -47.6934         -75.233       -0.0235888         142.703
0.619                   -2.32753         175.495         -47.6516        -77.2275         -47.6518        -77.2262       -0.0238421         142.622
0.62                    -2.33515         174.441         -47.6069        -79.2056         -47.6071        -79.2043       -0.0240997          142.54
0.621                   -2.34625         173.365          -47.559        -81.1707         -47.5593        -81.1693       -0.0243617         142.459
0.622                    -2.3609         172.268          -47.508        -83.1249         -47.5082        -83.1234       -0.0246281         142.377
0.623                   -2.37917         171.151         -47.4537        -85.0701          -47.454        -85.0686        -0.024899         142.294
0.624                   -2.40113         170.013         -47.3963        -87.0084         -47.3965        -87.0069       -0.0251745         142.212
0.625                   -2.42688         168.856         -47.3356        -88.9416         -47.3359        -88.9401       -0.0254547         142.129
0.626                    -2.4565         167.678         -47.2718        -90.8716          -47.272        -90.8701       -0.0257396         142.046
0.627                   -2.49011         166.481         -47.2049        -92.8001         -47.2051        -92.7986       -0.0260293         141.963
0.628                   -2.52782         165.265          -47.135        -94.7288         -47.1352        -94.7274       -0.0263239         141.879
0.629                   -2.56976         164.029         -47.0621        -96.6594         -47.0623        -96.6579       -0.0266234         141.796
0.63                    -2.61607         162.774         -46.9864        -98.5932         -46.9866        -98.5919        -0.026928         141.711
0.631                   -2.66691           161.5          -46.908        -100.532         -46.9081        -100.531       -0.0272376         141.627
0.632                   -2.72245         160.207         -46.8269        -102.477          -46.827        -102.475       -0.0275523         141.542
0.633                   -2.78286         158.895         -46.7434        -104.429         -46.7435        -104.428       -0.0278723         141.458
0.634                   -2.84835         157.565         -46.6576        -106.389         -46.6577        -106.388       -0.0281975         141.372
0.635                   -2.91913         156.216         -46.5696        -108.359         -46.5697        -108.359       -0.0285281         141.287
0.636                   -2.99544         154.849         -46.4796         -110.34         -46.4797         -110.34       -0.0288641         141.201
0.637                   -3.07752         153.464         -46.3879        -112.333         -46.3879        -112.332       -0.0292056         141.115
0.638                   -3.16564         152.062         -46.2945        -114.337         -46.2945        -114.337       -0.0295526         141.029
0.639                   -3.26007         150.642         -46.1997        -116.354         -46.1997        -116.354       -0.0299054         140.942
0.64                    -3.36114         149.206         -46.1036        -118.385         -46.1037        -118.385       -0.0302638         140.855
0.641                   -3.46915         147.753         -46.0066         -120.43         -46.0066         -120.43        -0.030628         140.768
0.642                   -3.58446         146.285         -45.9087        -122.489         -45.9087        -122.489       -0.0309981          140.68
0.643                   -3.70742         144.803         -45.8103        -124.562         -45.8103        -124.563       -0.0313742         140.592
0.644                   -3.83843         143.307         -45.7114         -126.65         -45.7114        -126.651       -0.0317563         140.504
0.645                   -3.97789         141.799         -45.6124        -128.753         -45.6123        -128.753       -0.0321446         140.415
0.646                   -4.12623          140.28         -45.5134         -130.87         -45.5133         -130.87       -0.0325391         140.326
0.647                    -4.2839         138.751         -45.4146        -133.001         -45.4146        -133.002       -0.0329399         140.237
0.648                   -4.45138         137.215         -45.3163        -135.146         -45.3162        -135.147       -0.0333471         140.147
0.649                   -4.62918         135.673         -45.2186        -137.304         -45.2185        -137.306       -0.0337609         140.057
0.65                    -4.81781         134.127         -45.1217        -139.476         -45.1217        -139.477       -0.0341812         139.967
0.651                   -5.01783          132.58         -45.0259         -141.66         -45.0259        -141.661       -0.0346083         139.876
0.652                   -5.22983         131.036         -44.9312        -143.855         -44.9312        -143.856       -0.0350423         139.785
0.653                   -5.45439         129.497          -44.838        -146.061         -44.8379        -146.062       -0.0354832         139.694
0.654                   -5.69215         127.967         -44.7462        -148.276         -44.7462        -148.278       -0.0359311         139.602
0.655                   -5.94378          126.45         -44.6561        -150.501         -44.6561        -150.502       -0.0363863          139.51
0.656                   -6.20996         124.952         -44.5678        -152.733         -44.5678        -152.734       -0.0368487         139.417
0.657                    -6.4914         123.478         -44.4814        -154.972         -44.4814        -154.973       -0.0373186         139.324
0.658                   -6.78885         122.033          -44.397        -157.216          -44.397        -157.217       -0.0377961         139.231
0.659                   -7.10308         120.625         -44.3146        -159.465         -44.3146        -159.466       -0.0382812         139.137
0.66                    -7.43489         119.262         -44.2345        -161.717         -44.2345        -161.718       -0.0387742         139.043
0.661                    -7.7851         117.953         -44.1566        -163.971         -44.1566        -163.971       -0.0392753         138.948
0.662                   -8.15454         116.707         -44.0809        -166.225         -44.0809        -166.225       -0.0397844         138.853
0.663                   -8.54406         115.537         -44.0075        -168.478         -44.0075        -168.479       -0.0403019         138.758
0.664                   -8.95451         114.457         -43.9364         -170.73         -43.9364         -170.73       -0.0408279         138.662
0.665                   -9.38669         113.481         -43.8677        -172.979         -43.8676        -172.979       -0.0413625         138.565
0.666                   -9.84136         112.629         -43.8011        -175.224          -43.801        -175.223       -0.0419059         138.469
0.667                   -10.3192          111.92         -43.7369        -177.463         -43.7368        -177.462       -0.0424584         138.371
0.668                   -10.8206         111.381         -43.6748        -179.696         -43.6747        -179.694         -0.04302         138.274
0.669                   -11.3458         111.039         -43.6149         178.079         -43.6147         178.081       -0.0435911         138.175
0.67                    -11.8945         110.928         -43.5571         175.862         -43.5568         175.864       -0.0441717         138.077
0.671                   -12.4657         111.088         -43.5012         173.654          -43.501         173.657       -0.0447622         137.978
0.672                   -13.0575         111.564         -43.4474         171.457         -43.4471          171.46       -0.0453627         137.878
0.673                   -13.6665         112.407         -43.3954          169.27          -43.395         169.274       -0.0459735         137.778
0.674                   -14.2872         113.673         -43.3451         167.095         -43.3447         167.099       -0.0465948         137.677
0.675                   -14.9114         115.424         -43.2965         164.932         -43.2961         164.937       -0.0472268         137.576
0.676                   -15.5272         117.717         -43.2495         162.782          -43.249         162.787       -0.0478699         137.474
0.677                   -16.1183         120.599          -43.204         160.645         -43.2034         160.651       -0.0485243         137.372
0.678                   -16.6639         124.092         -43.1599         158.522         -43.1592         158.528       -0.0491902         137.269
0.679                   -17.1393         128.177          -43.117         156.413         -43.1163          156.42        -0.049868         137.166
0.68                    -17.5186         132.773         -43.0754         154.318         -43.0746         154.325       -0.0505579         137.062
0.681                   -17.7792         137.733         -43.0348         152.237          -43.034         152.245       -0.0512604         136.957
0.682                   -17.9067         142.852         -42.9953         150.171         -42.9944         150.179       -0.0519756         136.852
0.683                   -17.8992           147.9         -42.9568          148.12         -42.9558         148.128        -0.052704         136.746
0.684                   -17.7675         152.658         -42.9191         146.083          -42.918         146.091       -0.0534458          136.64
0.685                   -17.5322         156.962         -42.8822          144.06          -42.881         144.069       -0.0542015         136.533
0.686                   -17.2184         160.713          -42.846         142.052         -42.8448         142.062       -0.0549714         136.426
0.687                   -16.8512         163.876         -42.8106         140.058         -42.8093         140.068        -0.055756         136.317
0.688                   -16.4524         166.462         -42.7759         138.078         -42.7745         138.088       -0.0565555         136.209
0.689                   -16.0391         168.511         -42.7417         136.111         -42.7403         136.122       -0.0573706         136.099
0.69                    -15.6242         170.078         -42.7083         134.158         -42.7068          134.17       -0.0582015         135.989
0.691                   -15.2166         171.222         -42.6755         132.218         -42.6739          132.23       -0.0590487         135.878
0.692                   -14.8221             172         -42.6433          130.29         -42.6417         130.303       -0.0599127         135.767
0.693                   -14.4445         172.462         -42.6119         128.375         -42.6102         128.387        -0.060794         135.654
0.694                   -14.0859         172.653         -42.5812         126.471         -42.5796         126.483       -0.0616931         135.541
0.695                   -13.7474         172.614         -42.5515         124.577         -42.5498          124.59       -0.0626105         135.428
0.696                   -13.4292         172.375         -42.5227         122.694          -42.521         122.706       -0.0635467         135.313