! TOUCHSTONE file generated by CST MICROWAVE STUDIO
! Date and time: Tue Nov 17 07:10:43 2020
! Project name: Scenario_1_Planar_Body_Tissue_Out_of_Line.cst
! Header version: 2018
! Port assignment regex: !\s*Touchstone port\s*([0-9]+)\s*=\s*(CST MWS port|CST DS port)\s*([0-9]+|Zmin|Zmax)\s*\(\"(.*)\"\)(\s*mode\s*([0-9]+))?.*
! Touchstone port assignment:
! Touchstone port 1 = CST MWS port 1 ("")
! Touchstone port 2 = CST MWS port 2 ("")
# GHz S DB R 50
0.5                    -0.148257        -121.674         -65.2478        -25.2464         -65.2477        -25.2427      -0.00761245         151.156
0.501                  -0.150835        -122.104         -65.1603        -27.4661         -65.1604        -27.4637      -0.00767598         151.091
0.502                  -0.153492        -122.536         -65.0738        -29.6594         -65.0742         -29.658      -0.00774014         151.025
0.503                  -0.156237        -122.972         -64.9877        -31.8257         -64.9885        -31.8253      -0.00780493          150.96
0.504                  -0.159078        -123.412         -64.9014        -33.9651         -64.9025        -33.9655      -0.00787037         150.895
0.505                  -0.162024        -123.854         -64.8144        -36.0778         -64.8158        -36.0788      -0.00793647         150.829
0.506                  -0.165083          -124.3         -64.7262        -38.1643         -64.7278        -38.1658      -0.00800324         150.764
0.507                  -0.168266         -124.75         -64.6361        -40.2256         -64.6381        -40.2274       -0.0080707         150.698
0.508                  -0.171583        -125.203         -64.5439        -42.2627         -64.5461        -42.2647      -0.00813885         150.632
0.509                  -0.175045         -125.66          -64.449        -44.2768         -64.4514        -44.2789      -0.00820771         150.566
0.51                   -0.178665         -126.12          -64.351        -46.2695         -64.3537        -46.2715      -0.00827729         150.501
0.511                  -0.182455        -126.585         -64.2497        -48.2423         -64.2525        -48.2442      -0.00834761         150.435
0.512                  -0.186429        -127.053         -64.1446        -50.1969         -64.1476        -50.1985      -0.00841868         150.369
0.513                  -0.190603        -127.525         -64.0354        -52.1351         -64.0386        -52.1364      -0.00849052         150.302
0.514                  -0.194992        -128.001         -63.9219        -54.0587         -63.9252        -54.0597      -0.00856315         150.236
0.515                  -0.199614        -128.481         -63.8039        -55.9697         -63.8073        -55.9703      -0.00863657          150.17
0.516                  -0.204488        -128.965         -63.6811        -57.8701         -63.6846        -57.8702      -0.00871082         150.104
0.517                  -0.209633        -129.454         -63.5534        -59.7619         -63.5569        -59.7615       -0.0087859         150.037
0.518                  -0.215072        -129.947         -63.4206        -61.6472         -63.4241        -61.6463      -0.00886184         149.971
0.519                  -0.220828        -130.444         -63.2825         -63.528          -63.286        -63.5266      -0.00893866         149.904
0.52                   -0.226926        -130.946          -63.139        -65.4065         -63.1425        -65.4045      -0.00901638         149.837
0.521                  -0.233394        -131.453           -62.99        -67.2848         -62.9935        -67.2823      -0.00909503          149.77
0.522                  -0.240263        -131.964         -62.8355        -69.1652          -62.839        -69.1622      -0.00917462         149.704
0.523                  -0.247563         -132.48         -62.6754        -71.0497         -62.6787        -71.0463       -0.0092552         149.637
0.524                   -0.25533            -133         -62.5095        -72.9408         -62.5128        -72.9368      -0.00933677         149.569
0.525                  -0.263603        -133.526          -62.338        -74.8405         -62.3412        -74.8362      -0.00941938         149.502
0.526                  -0.272421        -134.056         -62.1607        -76.7514         -62.1638        -76.7467      -0.00950306         149.435
0.527                  -0.281829        -134.592         -61.9778        -78.6756         -61.9808        -78.6706      -0.00958783         149.368
0.528                  -0.291875        -135.132         -61.7891        -80.6157          -61.792        -80.6104      -0.00967374           149.3
0.529                   -0.30261        -135.677         -61.5949         -82.574         -61.5975        -82.5686      -0.00976082         149.233
0.53                    -0.31409        -136.227          -61.395        -84.5532         -61.3975        -84.5476      -0.00984911         149.165
0.531                  -0.326375        -136.782         -61.1896        -86.5557         -61.1919        -86.5501      -0.00993866         149.097
0.532                   -0.33953        -137.342         -60.9788        -88.5843          -60.981        -88.5786       -0.0100295          149.03
0.533                  -0.353622        -137.907         -60.7627        -90.6415         -60.7647        -90.6359       -0.0101217         148.962
0.534                  -0.368726        -138.477         -60.5416        -92.7302         -60.5434        -92.7247       -0.0102153         148.894
0.535                  -0.384919         -139.05         -60.3154        -94.8531         -60.3171        -94.8478       -0.0103103         148.825
0.536                  -0.402284        -139.628         -60.0846        -97.0132         -60.0861        -97.0081       -0.0104068         148.757
0.537                  -0.420907         -140.21         -59.8493        -99.2133         -59.8506        -99.2086       -0.0105049         148.689
0.538                  -0.440878        -140.796         -59.6098        -101.456         -59.6109        -101.452       -0.0106045         148.621
0.539                   -0.46229        -141.384         -59.3665        -103.746         -59.3674        -103.742       -0.0107058         148.552
0.54                   -0.485234        -141.975         -59.1197        -106.084         -59.1204         -106.08       -0.0108089         148.483
0.541                  -0.509806        -142.567         -58.8698        -108.474         -58.8704        -108.471       -0.0109136         148.415
0.542                  -0.536094        -143.161         -58.6174        -110.919         -58.6178        -110.917       -0.0110202         148.346
0.543                  -0.564183        -143.754          -58.363        -113.421         -58.3633         -113.42       -0.0111286         148.277
0.544                  -0.594149        -144.346         -58.1071        -115.984         -58.1073        -115.984       -0.0112388         148.208
0.545                  -0.626051        -144.935         -57.8505         -118.61         -57.8505         -118.61        -0.011351         148.139
0.546                  -0.659932        -145.521         -57.5938        -121.301         -57.5938        -121.302        -0.011465         148.069
0.547                  -0.695806        -146.101          -57.338        -124.059         -57.3378        -124.061       -0.0115809             148
0.548                  -0.733656        -146.673         -57.0837        -126.885         -57.0835        -126.888       -0.0116986         147.931
0.549                  -0.773421        -147.236         -56.8321        -129.781         -56.8318        -129.785       -0.0118182         147.861
0.55                   -0.814993        -147.788          -56.584        -132.747         -56.5837        -132.752       -0.0119395         147.791
0.551                  -0.858205        -148.326         -56.3406        -135.783         -56.3402        -135.788       -0.0120625         147.721
0.552                  -0.902824        -148.848         -56.1028        -138.887         -56.1025        -138.893       -0.0121871         147.652
0.553                  -0.948546        -149.353         -55.8719        -142.057         -55.8715        -142.064       -0.0123132         147.582
0.554                  -0.994994        -149.838         -55.6488        -145.292         -55.6484        -145.299       -0.0124406         147.511
0.555                   -1.04172        -150.303         -55.4347        -148.586         -55.4344        -148.594       -0.0125692         147.441
0.556                    -1.0882        -150.745         -55.2306        -151.935         -55.2303        -151.944       -0.0126988         147.371
0.557                   -1.13387        -151.166         -55.0375        -155.333         -55.0373        -155.342       -0.0128294           147.3
0.558                   -1.17813        -151.565         -54.8563        -158.774         -54.8561        -158.783       -0.0129607          147.23
0.559                   -1.22035        -151.942         -54.6876         -162.25         -54.6875        -162.259       -0.0130928         147.159
0.56                    -1.25994        -152.301         -54.5321        -165.751         -54.5321        -165.761       -0.0132253         147.088
0.561                   -1.29635        -152.644         -54.3901         -169.27         -54.3902        -169.279       -0.0133584         147.017
0.562                    -1.3291        -152.975          -54.262        -172.797         -54.2622        -172.806       -0.0134918         146.946
0.563                   -1.35783        -153.297         -54.1477        -176.323          -54.148        -176.332       -0.0136256         146.875
0.564                   -1.38229        -153.615         -54.0471        -179.837         -54.0474        -179.846       -0.0137598         146.804
0.565                   -1.40239        -153.934         -53.9598         176.668         -53.9602         176.659       -0.0138943         146.733
0.566                   -1.41816        -154.258         -53.8853         173.201         -53.8857         173.193       -0.0140293         146.661
0.567                   -1.42976        -154.592         -53.8229          169.77         -53.8233         169.763       -0.0141647         146.589
0.568                   -1.43747        -154.941         -53.7718         166.382         -53.7722         166.376       -0.0143007         146.517
0.569                   -1.44166        -155.307          -53.731         163.044         -53.7315         163.038       -0.0144373         146.446
0.57                    -1.44278        -155.695         -53.6996         159.759            -53.7         159.754       -0.0145746         146.373
0.571                   -1.44131        -156.105         -53.6764         156.532         -53.6769         156.528       -0.0147128         146.301
0.572                   -1.43774         -156.54         -53.6605         153.367          -53.661         153.363       -0.0148518         146.229
0.573                   -1.43259            -157         -53.6508         150.265         -53.6512         150.261        -0.014992         146.156
0.574                   -1.42632        -157.487         -53.6462         147.227         -53.6466         147.224       -0.0151332         146.084
0.575                    -1.4194            -158         -53.6456         144.254          -53.646         144.252       -0.0152757         146.011
0.576                   -1.41223         -158.54         -53.6482         141.345         -53.6485         141.343       -0.0154196         145.938
0.577                   -1.40519        -159.104          -53.653           138.5         -53.6533         138.499       -0.0155648         145.865
0.578                   -1.39861        -159.694         -53.6591         135.717         -53.6594         135.716       -0.0157116         145.791
0.579                   -1.39278        -160.307         -53.6658         132.995          -53.666         132.994       -0.0158601         145.718
0.58                    -1.38795        -160.944         -53.6724          130.33         -53.6726          130.33       -0.0160102         145.644
0.581                   -1.38433        -161.602         -53.6782         127.721         -53.6783         127.721        -0.016162         145.571
0.582                   -1.38209        -162.281         -53.6827         125.165         -53.6827         125.165       -0.0163158         145.497
0.583                   -1.38141         -162.98         -53.6853         122.659         -53.6853         122.659       -0.0164714         145.423
0.584                   -1.38241        -163.697         -53.6856           120.2         -53.6855         120.201        -0.016629         145.348
0.585                    -1.3852        -164.433         -53.6831         117.786          -53.683         117.786       -0.0167886         145.274
0.586                    -1.3899        -165.186         -53.6776         115.413         -53.6775         115.413       -0.0169503         145.199
0.587                   -1.39658        -165.955         -53.6687         113.078         -53.6686         113.079       -0.0171141         145.125
0.588                   -1.40532         -166.74         -53.6562         110.778          -53.656         110.779       -0.0172801          145.05
0.589                   -1.41621         -167.54         -53.6398         108.511         -53.6397         108.512       -0.0174483         144.975
0.59                    -1.42932        -168.354         -53.6195         106.274         -53.6193         106.274       -0.0176189           144.9
0.591                   -1.44471        -169.183          -53.595         104.063         -53.5947         104.064       -0.0177917         144.824
0.592                   -1.46246        -170.025         -53.5661         101.876         -53.5659         101.877        -0.017967         144.749
0.593                   -1.48264         -170.88          -53.533         99.7114         -53.5327         99.7123       -0.0181446         144.673
0.594                   -1.50533        -171.748         -53.4953         97.5654         -53.4951         97.5661       -0.0183248         144.597
0.595                   -1.53061        -172.627         -53.4532         95.4357          -53.453         95.4365       -0.0185074         144.521
0.596                   -1.55857        -173.519         -53.4066         93.3202         -53.4064         93.3209       -0.0186926         144.444
0.597                    -1.5893        -174.422         -53.3555         91.2163         -53.3552          91.217       -0.0188804         144.368
0.598                   -1.62289        -175.336         -53.2999          89.122         -53.2996         89.1226       -0.0190709         144.291
0.599                   -1.65945        -176.261         -53.2398         87.0349         -53.2395         87.0355       -0.0192641         144.214
0.6                     -1.69909        -177.196         -53.1753          84.953          -53.175         84.9536         -0.01946         144.137
0.601                   -1.74194        -178.141         -53.1064         82.8743         -53.1061         82.8749       -0.0196587          144.06
0.602                   -1.78812        -179.095         -53.0332         80.7967          -53.033         80.7973       -0.0198602         143.983
0.603                   -1.83777         179.943         -52.9558         78.7183         -52.9556         78.7189       -0.0200647         143.905
0.604                   -1.89102         178.972         -52.8742         76.6374         -52.8741         76.6379        -0.020272         143.827
0.605                   -1.94804         177.994         -52.7887          74.552         -52.7885         74.5526       -0.0204824         143.749
0.606                   -2.00897          177.01         -52.6993         72.4605         -52.6991         72.4611       -0.0206959         143.671
0.607                   -2.07398         176.019         -52.6061         70.3612          -52.606         70.3617       -0.0209124         143.593
0.608                   -2.14324         175.024         -52.5094         68.2524         -52.5092          68.253       -0.0211321         143.514
0.609                   -2.21692         174.026         -52.4091         66.1327          -52.409         66.1333        -0.021355         143.435
0.61                    -2.29521         173.025         -52.3056         64.0006         -52.3055         64.0012       -0.0215813         143.356
0.611                   -2.37828         172.024          -52.199         61.8546         -52.1989         61.8552       -0.0218108         143.277
0.612                   -2.46631         171.023         -52.0895         59.6935         -52.0894         59.6941       -0.0220438         143.197
0.613                   -2.55947         170.025         -51.9773         57.5159         -51.9773         57.5165       -0.0222802         143.117
0.614                   -2.65794         169.032         -51.8627         55.3207         -51.8626         55.3213       -0.0225201         143.037
0.615                   -2.76187         168.046         -51.7458         53.1068         -51.7457         53.1074       -0.0227636         142.957
0.616                    -2.8714         167.069         -51.6269         50.8733         -51.6268         50.8739       -0.0230108         142.877
0.617                   -2.98667         166.105         -51.5062         48.6192         -51.5062         48.6198       -0.0232616         142.796
0.618                   -3.10777         165.156         -51.3841         46.3439         -51.3841         46.3444       -0.0235163         142.715
0.619                   -3.23476         164.226         -51.2608         44.0466         -51.2608         44.0471       -0.0237747         142.634
0.62                    -3.36768         163.317         -51.1366         41.7269         -51.1366         41.7274       -0.0240371         142.553
0.621                   -3.50651         162.436         -51.0118         39.3845         -51.0117         39.3849       -0.0243034         142.471
0.622                   -3.65115         161.584         -50.8866          37.019         -50.8866         37.0194       -0.0245737         142.389
0.623                   -3.80147         160.768         -50.7614         34.6306         -50.7614         34.6309       -0.0248481         142.307
0.624                   -3.95722          159.99         -50.6366         32.2192         -50.6365         32.2194       -0.0251265         142.225
0.625                    -4.1181         159.257         -50.5123         29.7853         -50.5123         29.7855       -0.0254091         142.142
0.626                   -4.28367         158.573         -50.3889         27.3293         -50.3889         27.3294       -0.0256959          142.06
0.627                   -4.45339         157.943         -50.2668         24.8519         -50.2668         24.8519       -0.0259869         141.977
0.628                    -4.6266         157.372         -50.1462         22.3539         -50.1462         22.3538       -0.0262823         141.893
0.629                   -4.80248         156.864         -50.0273         19.8365         -50.0273         19.8363       -0.0265819          141.81
0.63                    -4.98011         156.424         -49.9105         17.3007         -49.9106         17.3005       -0.0268859         141.726
0.631                   -5.15839         156.055         -49.7961         14.7482         -49.7961         14.7478       -0.0271943         141.642
0.632                   -5.33609          155.76         -49.6841         12.1803         -49.6842         12.1799       -0.0275071         141.557
0.633                   -5.51186         155.542          -49.575         9.59897          -49.575         9.59851       -0.0278244         141.472
0.634                   -5.68424         155.399         -49.4687         7.00596         -49.4688         7.00544       -0.0281462         141.387
0.635                   -5.85168         155.333         -49.3656         4.40328         -49.3657         4.40273       -0.0284725         141.302
0.636                   -6.01256          155.34         -49.2656         1.79302         -49.2657         1.79245       -0.0288035         141.216
0.637                   -6.16529         155.416         -49.1689       -0.822656          -49.169       -0.823237       -0.0291391         141.131
0.638                    -6.3083         155.555         -49.0755        -3.44154         -49.0757        -3.44212       -0.0294794         141.044
0.639                   -6.44016         155.751         -48.9855        -6.06142         -48.9857        -6.06198       -0.0298245         140.958
0.64                    -6.55956         155.992         -48.8988        -8.68009          -48.899        -8.68061       -0.0301745         140.871
0.641                   -6.66545         156.269         -48.8154        -11.2954         -48.8156        -11.2958       -0.0305294         140.784
0.642                   -6.75703         156.569         -48.7352        -13.9052         -48.7353        -13.9056       -0.0308893         140.697
0.643                   -6.83381         156.878         -48.6579        -16.5075         -48.6581        -16.5079       -0.0312543         140.609
0.644                   -6.89564         157.184         -48.5836        -19.1005         -48.5838        -19.1007       -0.0316245         140.521
0.645                   -6.94268         157.474         -48.5119        -21.6823         -48.5121        -21.6825           -0.032         140.432
0.646                   -6.97542         157.733         -48.4428        -24.2515          -48.443        -24.2516        -0.032381         140.344
0.647                   -6.99465          157.95         -48.3759        -26.8066         -48.3761        -26.8067       -0.0327675         140.255
0.648                   -7.00139         158.115          -48.311        -29.3464         -48.3111        -29.3464       -0.0331597         140.165
0.649                   -6.99686         158.218         -48.2478          -31.87          -48.248        -31.8699       -0.0335577         140.075
0.65                    -6.98243         158.251         -48.1861        -34.3764         -48.1862        -34.3762       -0.0339616         139.985
0.651                   -6.95953         158.208         -48.1256        -36.8651         -48.1257        -36.8649       -0.0343717         139.895
0.652                   -6.92965         158.085         -48.0659        -39.3357          -48.066        -39.3355        -0.034788         139.804
0.653                   -6.89428         157.878         -48.0069        -41.7881         -48.0069        -41.7879       -0.0352108         139.713
0.654                   -6.85484         157.586         -47.9482        -44.2222         -47.9482         -44.222       -0.0356401         139.621
0.655                   -6.81272         157.207         -47.8895        -46.6383         -47.8895        -46.6381       -0.0360761         139.529
0.656                   -6.76919         156.743         -47.8306        -49.0367         -47.8305        -49.0366       -0.0365191         139.437
0.657                   -6.72545         156.195         -47.7712        -51.4179         -47.7711         -51.418       -0.0369692         139.344
0.658                   -6.68257         155.563         -47.7111        -53.7827          -47.711        -53.7829       -0.0374266         139.251
0.659                   -6.64155         154.851           -47.65         -56.132         -47.6499        -56.1323       -0.0378914         139.157
0.66                    -6.60327         154.061         -47.5877        -58.4667         -47.5876        -58.4672        -0.038364         139.063
0.661                   -6.56853         153.195         -47.5241        -60.7878          -47.524        -60.7885       -0.0388444         138.969
0.662                   -6.53804         152.255          -47.459        -63.0967         -47.4588        -63.0976        -0.039333         138.874
0.663                   -6.51246         151.246         -47.3922        -65.3945          -47.392        -65.3956       -0.0398299         138.779
0.664                   -6.49236         150.168         -47.3236        -67.6826         -47.3234        -67.6839       -0.0403353         138.683
0.665                   -6.47826         149.026          -47.253        -69.9625         -47.2528         -69.964       -0.0408496         138.587
0.666                   -6.47067          147.82         -47.1805        -72.2355         -47.1803        -72.2373       -0.0413729          138.49
0.667                   -6.47002         146.555         -47.1058        -74.5032         -47.1056        -74.5052       -0.0419054         138.393
0.668                   -6.47677          145.23         -47.0291        -76.7671         -47.0289        -76.7693       -0.0424475         138.295
0.669                   -6.49131         143.849         -46.9501        -79.0286           -46.95         -79.031       -0.0429995         138.197
0.67                    -6.51405         142.413         -46.8691        -81.2894         -46.8689         -81.292       -0.0435615         138.099
0.671                   -6.54541         140.924         -46.7858        -83.5508         -46.7857        -83.5535       -0.0441339             138
0.672                   -6.58579         139.383         -46.7005        -85.8143         -46.7004        -85.8172       -0.0447169           137.9
0.673                   -6.63563         137.792         -46.6132        -88.0815         -46.6131        -88.0845       -0.0453109           137.8
0.674                   -6.69537         136.151         -46.5238        -90.3536         -46.5238        -90.3567       -0.0459162           137.7
0.675                   -6.76547         134.462         -46.4326         -92.632         -46.4326        -92.6351       -0.0465331         137.599
0.676                   -6.84644         132.725         -46.3397        -94.9179         -46.3397        -94.9211       -0.0471618         137.497
0.677                   -6.93881         130.941         -46.2451        -97.2126         -46.2452        -97.2157       -0.0478028         137.395
0.678                   -7.04317         129.112          -46.149        -99.5171         -46.1491        -99.5202       -0.0484563         137.292
0.679                   -7.16014         127.237         -46.0517        -101.832         -46.0518        -101.835       -0.0491228         137.189
0.68                    -7.29041         125.317         -45.9531         -104.16         -45.9533        -104.162       -0.0498025         137.085
0.681                   -7.43472         123.354         -45.8536        -106.499         -45.8538        -106.502       -0.0504958         136.981
0.682                   -7.59389         121.347         -45.7533        -108.852         -45.7535        -108.854       -0.0512031         136.876
0.683                   -7.76881         119.297         -45.6525        -111.219         -45.6527        -111.221       -0.0519248         136.771
0.684                   -7.96047         117.205         -45.5513          -113.6         -45.5515        -113.602       -0.0526611         136.664
0.685                   -8.16995         115.072           -45.45        -115.995         -45.4502        -115.997       -0.0534126         136.558
0.686                   -8.39845         112.897         -45.3487        -118.405         -45.3489        -118.407       -0.0541796          136.45
0.687                    -8.6473         110.683         -45.2478         -120.83          -45.248        -120.832       -0.0549625         136.342
0.688                   -8.91798          108.43         -45.1474         -123.27         -45.1476        -123.271       -0.0557617         136.234
0.689                   -9.21214         106.138         -45.0477        -125.724          -45.048        -125.725       -0.0565776         136.125
0.69                    -9.53166          103.81         -44.9491        -128.193         -44.9493        -128.193       -0.0574106         136.015
0.691                   -9.87862         101.445         -44.8517        -130.675         -44.8518        -130.675       -0.0582612         135.904
0.692                   -10.2554         99.0463         -44.7556         -133.17         -44.7558        -133.169       -0.0591298         135.793
0.693                   -10.6649         96.6141         -44.6612        -135.677         -44.6614        -135.676       -0.0600168         135.681
0.694                   -11.1101         94.1504         -44.5687        -138.195         -44.5687        -138.194       -0.0609228         135.568
0.695                   -11.5948         91.6567         -44.4781        -140.723         -44.4781        -140.723       -0.0618481         135.455
0.696                   -12.1236         89.1348         -44.3897        -143.261         -44.3897        -143.261       -0.0627932          135.34
0.697                   -12.7016         86.5864         -44.3036        -145.807         -44.3035        -145.806       -0.0637586         135.225
0.698                   -13.3353         84.0136         -44.2199        -148.359         -44.2199        -148.358       -0.0647449          135.11