! TOUCHSTONE file generated by CST MICROWAVE STUDIO
! Date and time: Sat Nov 14 19:59:23 2020
! Project name: Scenario_1_Planar_Body_Tissue_Out_of_Line.cst
! Parameters = {dy1=224.9; L_HA=400; Ltissue=700; MT=2.54; Rad_Dielectric=30; Rad_Lower=7.3; Rad_Upper=30; Wtissue=700; a_HA=580; a_WG=246; b_HA=500; b_WG=121; c_HA=0; c_WG=187; d_feed=85; dx1=693; h_feed=15; h_lower=18; h_upper=40; hfat=3; hgap=25; hmuscle=50; hskin=1.5}
! Header version: 2018
! Port assignment regex: !\s*Touchstone port\s*([0-9]+)\s*=\s*(CST MWS port|CST DS port)\s*([0-9]+|Zmin|Zmax)\s*\(\"(.*)\"\)(\s*mode\s*([0-9]+))?.*
! Touchstone port assignment:
! Touchstone port 1 = CST MWS port 1 ("")
! Touchstone port 2 = CST MWS port 2 ("")
# GHz S DB R 50
0.5                    -0.184237        -121.648         -62.4944         177.601         -62.4933         177.601      -0.00776588         151.152
0.501                  -0.185773        -122.063         -62.3577         176.626         -62.3553         176.705      -0.00783034         151.087
0.502                  -0.187381        -122.481         -62.2176          175.63         -62.2134         175.791      -0.00789504         151.021
0.503                  -0.189065        -122.901         -62.0739         174.614         -62.0675         174.858         -0.00796         150.956
0.504                  -0.190828        -123.325         -61.9267         173.575         -61.9175         173.904      -0.00802524         150.891
0.505                  -0.192675        -123.752         -61.7758         172.513         -61.7632         172.928      -0.00809079         150.825
0.506                  -0.194608        -124.182         -61.6211         171.426         -61.6046          171.93      -0.00815668          150.76
0.507                  -0.196633        -124.615         -61.4626         170.313         -61.4414         170.906      -0.00822291         150.694
0.508                  -0.198754        -125.051         -61.3002         169.172         -61.2734         169.857      -0.00828952         150.629
0.509                  -0.200975        -125.491         -61.1337         168.002         -61.1007         168.779      -0.00835654         150.563
0.51                   -0.203302        -125.933         -60.9632         166.801         -60.9229         167.671      -0.00842398         150.497
0.511                   -0.20574         -126.38         -60.7887         165.566         -60.7399         166.531      -0.00849187         150.431
0.512                  -0.208294        -126.829           -60.61         164.297         -60.5517         165.355      -0.00856024         150.365
0.513                  -0.210971        -127.282         -60.4271         162.989         -60.3581         164.142       -0.0086291         150.299
0.514                  -0.213776        -127.739         -60.2402         161.641          -60.159         162.887      -0.00869848         150.233
0.515                  -0.216717        -128.199         -60.0492          160.25         -59.9543         161.587      -0.00876841         150.167
0.516                    -0.2198        -128.663         -59.8543         158.813         -59.7441         160.238      -0.00883891           150.1
0.517                  -0.223034         -129.13         -59.6555         157.327         -59.5283         158.835         -0.00891         150.034
0.518                  -0.226425        -129.602         -59.4531         155.787          -59.307         157.374      -0.00898171         149.967
0.519                  -0.229983        -130.077         -59.2474         154.192         -59.0803         155.849      -0.00905407         149.901
0.52                   -0.233716        -130.557         -59.0386         152.536         -58.8486         154.255      -0.00912709         149.834
0.521                  -0.237634         -131.04         -58.8273         150.815         -58.6122         152.584      -0.00920081         149.767
0.522                  -0.241748        -131.527          -58.614         149.026         -58.3716          150.83      -0.00927524           149.7
0.523                  -0.246068        -132.019         -58.3993         147.165         -58.1277         148.986      -0.00935042         149.633
0.524                  -0.250605        -132.515         -58.1842         145.228         -57.8813         147.044      -0.00942637         149.566
0.525                  -0.255373        -133.015         -57.9695         143.211         -57.6338         144.997      -0.00950311         149.499
0.526                  -0.260385         -133.52         -57.7565         141.112         -57.3866         142.838      -0.00958068         149.432
0.527                  -0.265654        -134.029         -57.5464         138.927         -57.1417          140.56       -0.0096591         149.364
0.528                  -0.271196        -134.543         -57.3408         136.657         -56.9013         138.159      -0.00973839         149.297
0.529                  -0.277026        -135.062         -57.1414         134.301         -56.6681         135.631      -0.00981859          149.23
0.53                   -0.283163        -135.585         -56.9498         131.862         -56.4451         132.978      -0.00989971         149.162
0.531                  -0.289624        -136.113         -56.7681         129.343         -56.2355         130.202       -0.0099818         149.094
0.532                   -0.29643        -136.647         -56.5982         126.753         -56.0429         127.314       -0.0100649         149.026
0.533                  -0.303602        -137.185         -56.4418         124.101         -55.8706         124.327        -0.010149         148.958
0.534                  -0.311162        -137.729         -56.3007         121.399         -55.7218         121.263       -0.0102341          148.89
0.535                  -0.319135        -138.278         -56.1762         118.663         -55.5992         118.147       -0.0103203         148.822
0.536                  -0.327547        -138.832         -56.0694         115.911         -55.5044         115.011       -0.0104076         148.754
0.537                  -0.336426        -139.392         -55.9808         113.163         -55.4383         111.891       -0.0104961         148.686
0.538                  -0.345803        -139.958         -55.9101          110.44         -55.4002         108.823       -0.0105857         148.617
0.539                   -0.35571        -140.529         -55.8567         107.764         -55.3881         105.844       -0.0106765         148.549
0.54                   -0.366182        -141.107          -55.819         105.153         -55.3991         102.984       -0.0107685          148.48
0.541                  -0.377257         -141.69         -55.7951         102.627         -55.4289         100.272       -0.0108618         148.411
0.542                  -0.388975        -142.279         -55.7823         100.201         -55.4725         97.7252       -0.0109565         148.342
0.543                   -0.40138        -142.874         -55.7777         97.8856         -55.5248         95.3561       -0.0110524         148.273
0.544                  -0.414519        -143.476         -55.7781         95.6885         -55.5804         93.1677       -0.0111497         148.204
0.545                  -0.428442        -144.084         -55.7803         93.6126         -55.6342         91.1561       -0.0112484         148.135
0.546                  -0.443205        -144.698         -55.7809         91.6569         -55.6817          89.311       -0.0113486         148.066
0.547                  -0.458865        -145.319         -55.7769         89.8167         -55.7188         87.6176       -0.0114502         147.996
0.548                  -0.475486        -145.946         -55.7657         88.0838         -55.7424         86.0575       -0.0115534         147.927
0.549                  -0.493135         -146.58         -55.7447         86.4476         -55.7499         84.6104       -0.0116581         147.857
0.55                   -0.511887        -147.221         -55.7121         84.8957         -55.7397         83.2549       -0.0117644         147.788
0.551                  -0.531819        -147.868         -55.6662         83.4141         -55.7105         81.9698       -0.0118723         147.718
0.552                  -0.553017        -148.522         -55.6059         81.9885         -55.6619         80.7347        -0.011982         147.648
0.553                   -0.57557        -149.182         -55.5305         80.6041         -55.5937         79.5304       -0.0120933         147.578
0.554                  -0.599575        -149.848         -55.4395         79.2465         -55.5062         78.3393       -0.0122064         147.507
0.555                  -0.625138        -150.521         -55.3329         77.9021         -55.4002         77.1458       -0.0123214         147.437
0.556                  -0.652367          -151.2         -55.2108         76.5578         -55.2764         75.9359       -0.0124382         147.367
0.557                  -0.681382        -151.885         -55.0738         75.2016         -55.1358         74.6975       -0.0125569         147.296
0.558                  -0.712307        -152.575         -54.9224         73.8227         -54.9796         73.4202       -0.0126775         147.225
0.559                  -0.745275         -153.27         -54.7573         72.4114         -54.8091          72.095       -0.0128002         147.154
0.56                   -0.780423         -153.97         -54.5794         70.9588         -54.6253         70.7146       -0.0129248         147.083
0.561                  -0.817898        -154.674         -54.3897         69.4574         -54.4296         69.2725       -0.0130516         147.012
0.562                  -0.857849        -155.381         -54.1891         67.9005         -54.2231         67.7637       -0.0131805         146.941
0.563                   -0.90043         -156.09         -53.9787         66.2823         -54.0071         66.1837       -0.0133117          146.87
0.564                  -0.945798        -156.801         -53.7597         64.5979         -53.7829         64.5291        -0.013445         146.798
0.565                   -0.99411        -157.511          -53.533         62.8431         -53.5515         62.7969       -0.0135806         146.727
0.566                   -1.04552         -158.22         -53.2998         61.0145         -53.3142          60.985       -0.0137185         146.655
0.567                   -1.10017        -158.926         -53.0612         59.1094          -53.072         59.0917       -0.0138588         146.583
0.568                    -1.1582        -159.627         -52.8183         57.1254         -52.8261         57.1158       -0.0140015         146.511
0.569                   -1.21972        -160.321         -52.5724         55.0609         -52.5776         55.0565       -0.0141466         146.439
0.57                    -1.28482        -161.004         -52.3244         52.9151         -52.3276         52.9135       -0.0142942         146.367
0.571                   -1.35355        -161.676         -52.0756         50.6873         -52.0773         50.6871       -0.0144442         146.294
0.572                   -1.42593        -162.331         -51.8271         48.3779         -51.8277         48.3779       -0.0145968         146.222
0.573                   -1.50191        -162.968           -51.58         45.9874         -51.5799         45.9872       -0.0147518         146.149
0.574                   -1.58135        -163.581         -51.3354         43.5174          -51.335         43.5168       -0.0149094         146.076
0.575                   -1.66407        -164.169         -51.0946         40.9698         -51.0941         40.9689       -0.0150694         146.003
0.576                   -1.74975        -164.726         -50.8586         38.3474         -50.8581         38.3466       -0.0152319          145.93
0.577                   -1.83799        -165.248         -50.6284         35.6538         -50.6282         35.6534       -0.0153969         145.857
0.578                   -1.92823        -165.732          -50.405         32.8929         -50.4054         32.8937       -0.0155643         145.783
0.579                   -2.01981        -166.174         -50.1895         30.0697         -50.1904         30.0723        -0.015734          145.71
0.58                     -2.1119        -166.571         -49.9828         27.1898         -49.9842         27.1948       -0.0159059         145.636
0.581                   -2.20358        -166.921         -49.7855         24.2594         -49.7875         24.2673       -0.0160801         145.562
0.582                   -2.29378        -167.221         -49.5984         21.2851         -49.6009         21.2965       -0.0162563         145.488
0.583                   -2.38133        -167.472          -49.422         18.2741          -49.425         18.2896       -0.0164345         145.414
0.584                     -2.465        -167.675         -49.2569         15.2342         -49.2603         15.2539       -0.0166145          145.34
0.585                   -2.54358        -167.832         -49.1031          12.173         -49.1069         12.1972       -0.0167963         145.266
0.586                   -2.61583        -167.947          -48.961          9.0985          -48.965         9.12714       -0.0169796         145.191
0.587                   -2.68067        -168.026         -48.8305          6.0185         -48.8346         6.05156       -0.0171643         145.116
0.588                   -2.73712        -168.076         -48.7115         2.94065         -48.7156         2.97794       -0.0173503         145.041
0.589                   -2.78444        -168.107         -48.6036       -0.127712         -48.6077      -0.0865093       -0.0175375         144.966
0.59                    -2.82213        -168.126         -48.5065        -3.17973         -48.5105        -3.13501       -0.0177257         144.891
0.591                   -2.84996        -168.144         -48.4196         -6.2091         -48.4234        -6.16133       -0.0179148         144.816
0.592                   -2.86797        -168.171         -48.3424        -9.21012          -48.346        -9.15982       -0.0181048          144.74
0.593                    -2.8765        -168.216         -48.2743        -12.1778         -48.2775        -12.1255       -0.0182955         144.665
0.594                   -2.87611        -168.288         -48.2143        -15.1079         -48.2172        -15.0542       -0.0184868         144.589
0.595                   -2.86756        -168.395         -48.1619        -17.9968         -48.1644        -17.9423       -0.0186789         144.513
0.596                   -2.85176        -168.542         -48.1162        -20.8418         -48.1183         -20.787       -0.0188717         144.436
0.597                   -2.82973        -168.735         -48.0764        -23.6406         -48.0781         -23.586       -0.0190653          144.36
0.598                   -2.80253        -168.978         -48.0417        -26.3919         -48.0431        -26.3379       -0.0192597         144.283
0.599                    -2.7712        -169.272         -48.0114        -29.0946         -48.0124        -29.0418        -0.019455         144.207
0.6                      -2.7368         -169.62         -47.9848        -31.7485         -47.9854        -31.6971       -0.0196513          144.13
0.601                   -2.70026         -170.02         -47.9611        -34.3536         -47.9614        -34.3041       -0.0198489         144.052
0.602                   -2.66249        -170.473         -47.9396        -36.9105         -47.9396        -36.8631       -0.0200479         143.975
0.603                   -2.62428        -170.977         -47.9198        -39.4201         -47.9196        -39.3749       -0.0202484         143.897
0.604                   -2.58632         -171.53         -47.9011        -41.8836         -47.9007        -41.8409       -0.0204508          143.82
0.605                   -2.54921         -172.13         -47.8829        -44.3024         -47.8823        -44.2622        -0.020655         143.742
0.606                   -2.51346        -172.775         -47.8649        -46.6781         -47.8641        -46.6405       -0.0208615         143.663
0.607                   -2.47951        -173.462         -47.8464        -49.0125         -47.8456        -48.9776       -0.0210703         143.585
0.608                   -2.44771         -174.19         -47.8273        -51.3075         -47.8263        -51.2754       -0.0212816         143.506
0.609                   -2.41835        -174.955          -47.807        -53.5651          -47.806        -53.5357       -0.0214958         143.427
0.61                    -2.39165        -175.756         -47.7854        -55.7874         -47.7843        -55.7606       -0.0217129         143.348
0.611                   -2.36782         -176.59         -47.7621        -57.9765          -47.761        -57.9521       -0.0219331         143.269
0.612                     -2.347        -177.456         -47.7368        -60.1343         -47.7358        -60.1124       -0.0221566         143.189
0.613                   -2.32929        -178.352         -47.7095        -62.2631         -47.7085        -62.2435       -0.0223836          143.11
0.614                   -2.31481        -179.276         -47.6799        -64.3649         -47.6789        -64.3475       -0.0226142          143.03
0.615                   -2.30362         179.774         -47.6478        -66.4417         -47.6469        -66.4265       -0.0228485         142.949
0.616                   -2.29579         178.797         -47.6132        -68.4956         -47.6123        -68.4823       -0.0230866         142.869
0.617                   -2.29136         177.796         -47.5759        -70.5285         -47.5751        -70.5171       -0.0233288         142.788
0.618                   -2.29038         176.772         -47.5359        -72.5425         -47.5352        -72.5327        -0.023575         142.707
0.619                   -2.29291         175.725          -47.493        -74.5393         -47.4924         -74.531       -0.0238254         142.626
0.62                    -2.29897         174.656         -47.4473        -76.5208         -47.4468         -76.514       -0.0240801         142.545
0.621                   -2.30863         173.566         -47.3987        -78.4889         -47.3982        -78.4833       -0.0243392         142.463
0.622                   -2.32193         172.455         -47.3472        -80.4452         -47.3468        -80.4407       -0.0246028         142.381
0.623                   -2.33893         171.323         -47.2928        -82.3914         -47.2925         -82.388       -0.0248709         142.299
0.624                    -2.3597         170.171         -47.2354        -84.3293         -47.2352        -84.3267       -0.0251436         142.216
0.625                   -2.38431         168.999         -47.1752        -86.2603         -47.1751        -86.2586        -0.025421         142.134
0.626                   -2.41285         167.808         -47.1122        -88.1861         -47.1122         -88.185       -0.0257032         142.051
0.627                   -2.44542         166.597         -47.0464         -90.108         -47.0464        -90.1075       -0.0259902         141.967
0.628                   -2.48211         165.367         -46.9778        -92.0277         -46.9779        -92.0276       -0.0262821         141.884
0.629                   -2.52305         164.118         -46.9066        -93.9464         -46.9067        -93.9467        -0.026579           141.8
0.63                    -2.56838          162.85         -46.8328        -95.8655          -46.833        -95.8661       -0.0268809         141.716
0.631                   -2.61824         161.562         -46.7564        -97.7863         -46.7566        -97.7871        -0.027188         141.632
0.632                   -2.67279         160.256         -46.6776        -99.7101         -46.6779        -99.7111       -0.0275002         141.547
0.633                   -2.73221         158.931         -46.5965        -101.638         -46.5968        -101.639       -0.0278177         141.462
0.634                    -2.7967         157.587         -46.5132        -103.571         -46.5135        -103.572       -0.0281405         141.377
0.635                   -2.86646         156.224         -46.4278        -105.511         -46.4281        -105.512       -0.0284687         141.292
0.636                   -2.94172         154.842         -46.3404        -107.458         -46.3407        -107.459       -0.0288023         141.206
0.637                   -3.02272         153.443         -46.2511        -109.414         -46.2514        -109.415       -0.0291415          141.12
0.638                   -3.10974         152.025         -46.1602        -111.379         -46.1605         -111.38       -0.0294862         141.034
0.639                   -3.20306         150.589         -46.0676        -113.354         -46.0679        -113.355       -0.0298367         140.947
0.64                    -3.30298         149.136         -45.9737         -115.34          -45.974        -115.341       -0.0301929          140.86
0.641                   -3.40982         147.666         -45.8786        -117.338         -45.8788        -117.339        -0.030555         140.773
0.642                   -3.52395          146.18         -45.7824        -119.349         -45.7826         -119.35        -0.030923         140.685
0.643                   -3.64573         144.678         -45.6853        -121.373         -45.6855        -121.373        -0.031297         140.597
0.644                   -3.77556         143.161         -45.5875         -123.41         -45.5877        -123.411       -0.0316771         140.509
0.645                   -3.91386          141.63         -45.4892        -125.462         -45.4893        -125.462       -0.0320634          140.42
0.646                   -4.06107         140.087         -45.3905        -127.528         -45.3906        -127.528        -0.032456         140.331
0.647                   -4.21767         138.532         -45.2917        -129.608         -45.2918        -129.608       -0.0328549         140.242
0.648                   -4.38417         136.967          -45.193        -131.704         -45.1931        -131.704       -0.0332604         140.153
0.649                   -4.56109         135.395         -45.0946        -133.814         -45.0946        -133.814       -0.0336724         140.063
0.65                      -4.749         133.817         -44.9967        -135.939         -44.9967        -135.939       -0.0340912         139.972
0.651                   -4.94848         132.235         -44.8995        -138.079         -44.8994        -138.079       -0.0345167         139.882
0.652                   -5.16016         130.652         -44.8031        -140.234          -44.803        -140.234       -0.0349491         139.791
0.653                   -5.38469         129.073         -44.7079        -142.402         -44.7078        -142.402       -0.0353886         139.699
0.654                   -5.62278         127.499          -44.614        -144.585         -44.6138        -144.584       -0.0358352         139.607
0.655                   -5.87515         125.935         -44.5215         -146.78         -44.5214         -146.78       -0.0362891         139.515
0.656                   -6.14257         124.386         -44.4308        -148.988         -44.4306        -148.987       -0.0367504         139.423
0.657                   -6.42585         122.857         -44.3419        -151.207         -44.3418        -151.207       -0.0372192          139.33
0.658                   -6.72583         121.354         -44.2551        -153.437         -44.2549        -153.437       -0.0376956         139.236
0.659                   -7.04341         119.885         -44.1704        -155.676         -44.1703        -155.676       -0.0381799         139.143
0.66                    -7.37952         118.456         -44.0882        -157.924          -44.088        -157.924       -0.0386721         139.049
0.661                   -7.73514         117.077         -44.0083        -160.179         -44.0082        -160.179       -0.0391724         138.954
0.662                   -8.11128         115.759         -43.9311         -162.44          -43.931         -162.44        -0.039681         138.859
0.663                   -8.50901         114.512         -43.8566        -164.706         -43.8565        -164.706        -0.040198         138.764
0.664                    -8.9294         113.353         -43.7849        -166.975         -43.7848        -166.975       -0.0407236         138.668
0.665                   -9.37353         112.295          -43.716        -169.245          -43.716        -169.245       -0.0412579         138.571
0.666                   -9.84248          111.36         -43.6499        -171.516           -43.65        -171.516       -0.0418011         138.475
0.667                   -10.3373         110.569         -43.5868        -173.786         -43.5869        -173.786       -0.0423534         138.378
0.668                   -10.8588         109.948         -43.5266        -176.053         -43.5267        -176.052        -0.042915          138.28
0.669                   -11.4076          109.53         -43.4693        -178.315         -43.4694        -178.314       -0.0434862         138.182
0.67                     -11.984         109.351         -43.4148         179.428         -43.4149         179.429        -0.044067         138.083
0.671                   -12.5876         109.457         -43.3631         177.179         -43.3633          177.18       -0.0446577         137.984
0.672                   -13.2168           109.9         -43.3141         174.939         -43.3143          174.94       -0.0452585         137.884
0.673                   -13.8687         110.741         -43.2677         172.709          -43.268          172.71       -0.0458697         137.784
0.674                   -14.5378         112.051         -43.2238          170.49         -43.2241         170.491       -0.0464915         137.684
0.675                   -15.2153         113.907         -43.1823         168.284         -43.1826         168.286        -0.047124         137.583
0.676                   -15.8879         116.387          -43.143         166.092         -43.1434         166.094       -0.0477677         137.481
0.677                   -16.5361         119.557         -43.1058         163.914         -43.1062         163.917       -0.0484227         137.379
0.678                    -17.134         123.457         -43.0705         161.753          -43.071         161.755       -0.0490892         137.276
0.679                   -17.6498         128.068          -43.037         159.608         -43.0374         159.611       -0.0497677         137.173
0.68                    -18.0497         133.289          -43.005         157.481         -43.0055         157.484       -0.0504583         137.069
0.681                   -18.3045         138.922         -42.9744         155.372         -42.9749         155.375       -0.0511614         136.964
0.682                   -18.3978          144.69          -42.945         153.282         -42.9454         153.285       -0.0518773         136.859
0.683                   -18.3313         150.292         -42.9165         151.211          -42.917         151.215       -0.0526063         136.754
0.684                   -18.1239         155.461         -42.8889         149.159         -42.8894         149.163       -0.0533487         136.648
0.685                   -17.8062         160.018         -42.8618         147.128         -42.8623         147.132       -0.0541049         136.541
0.686                   -17.4117          163.88         -42.8352         145.116         -42.8356          145.12       -0.0548753         136.433
0.687                   -16.9707          167.04         -42.8087         143.124         -42.8092         143.128       -0.0556602         136.325
0.688                   -16.5078         169.542         -42.7823         141.152         -42.7828         141.157         -0.05646         136.217
0.689                   -16.0407         171.456         -42.7557           139.2         -42.7562         139.205       -0.0572751         136.107
0.69                    -15.5816          172.86         -42.7288         137.268         -42.7292         137.273        -0.058106         135.997
0.691                   -15.1382         173.827         -42.7014         135.355         -42.7018          135.36        -0.058953         135.886
0.692                   -14.7153         174.425         -42.6733         133.462         -42.6737         133.467       -0.0598167         135.775
0.693                   -14.3154          174.71         -42.6443         131.587         -42.6447         131.592       -0.0606975         135.663
0.694                   -13.9393         174.732         -42.6144         129.731         -42.6147         129.735       -0.0615958          135.55
0.695                   -13.5874         174.533         -42.5833         127.892         -42.5836         127.897       -0.0625123         135.436
0.696                   -13.2591         174.145         -42.5509         126.071         -42.5512         126.076       -0.0634473         135.322