! TOUCHSTONE file generated by CST MICROWAVE STUDIO
! Date and time: Mon Nov 30 08:39:29 2020
! Project name: Scenario_1_Planar_Body_Tissue_Out_of_Line.cst
! Parameters = {dy1=-224.9; L_HA=400; Ltissue=700; MT=2.54; Rad_Dielectric=30; Rad_Lower=7.3; Rad_Upper=30; Wtissue=700; a_HA=580; a_WG=246; b_HA=500; b_WG=121; c_HA=0; c_WG=187; d_feed=85; dx1=866; h_feed=15; h_lower=18; h_upper=40; hfat=3; hgap=25; hmuscle=50; hskin=1.5}
! Header version: 2018
! Port assignment regex: !\s*Touchstone port\s*([0-9]+)\s*=\s*(CST MWS port|CST DS port)\s*([0-9]+|Zmin|Zmax)\s*\(\"(.*)\"\)(\s*mode\s*([0-9]+))?.*
! Touchstone port assignment:
! Touchstone port 1 = CST MWS port 1 ("")
! Touchstone port 2 = CST MWS port 2 ("")
# GHz S DB R 50
0.5                    -0.116648        -122.123         -64.4871         95.4231          -64.485          95.425      -0.00751993         151.153
0.501                  -0.122678         -122.58         -64.2418         93.6279         -64.2399         93.6296      -0.00758914         151.087
0.502                  -0.129101        -123.041         -63.9932         91.7918         -63.9914         91.7933      -0.00765949         151.022
0.503                   -0.13595        -123.504         -63.7414          89.913         -63.7398         89.9142      -0.00773101         150.957
0.504                  -0.143262        -123.971         -63.4867         87.9896         -63.4853         87.9907      -0.00780375         150.891
0.505                  -0.151078        -124.441         -63.2292         86.0198         -63.2279         86.0207      -0.00787774         150.826
0.506                  -0.159438        -124.914         -62.9692         84.0015         -62.9681         84.0024      -0.00795304          150.76
0.507                  -0.168388        -125.389         -62.7069          81.933          -62.706         81.9337      -0.00802966         150.694
0.508                  -0.177973        -125.867         -62.4427         79.8121         -62.4419         79.8128      -0.00810765         150.629
0.509                  -0.188241        -126.347         -62.1768          77.637         -62.1762         77.6376      -0.00818704         150.563
0.51                    -0.19924         -126.83         -61.9098         75.4057         -61.9093         75.4063      -0.00826784         150.497
0.511                  -0.211016        -127.314          -61.642         73.1164         -61.6417          73.117       -0.0083501         150.431
0.512                  -0.223615          -127.8          -61.374         70.7674         -61.3738          70.768       -0.0084338         150.365
0.513                  -0.237079        -128.286         -61.1063         68.3571         -61.1061         68.3578      -0.00851896         150.298
0.514                  -0.251443        -128.773         -60.8394         65.8841         -60.8394         65.8849      -0.00860558         150.232
0.515                  -0.266733         -129.26         -60.5741         63.3474         -60.5742         63.3483      -0.00869362         150.166
0.516                  -0.282965        -129.746         -60.3111         60.7461         -60.3113         60.7472      -0.00878305         150.099
0.517                  -0.300137        -130.229         -60.0511           58.08         -60.0514         58.0812      -0.00887383         150.033
0.518                  -0.318231         -130.71          -59.795         55.3491         -59.7953         55.3506       -0.0089659         149.966
0.519                  -0.337204        -131.188         -59.5436         52.5542         -59.5439         52.5558      -0.00905917           149.9
0.52                   -0.356987        -131.661         -59.2977         49.6964         -59.2981         49.6983      -0.00915355         149.833
0.521                  -0.377481        -132.128         -59.0583         46.7778         -59.0588         46.7799      -0.00924894         149.766
0.522                  -0.398557         -132.59         -58.8263         43.8009         -58.8268         43.8032       -0.0093452         149.699
0.523                  -0.420053        -133.044         -58.6026         40.7694         -58.6031         40.7719      -0.00944221         149.632
0.524                  -0.441778         -133.49          -58.388         37.6873         -58.3886           37.69      -0.00953984         149.565
0.525                  -0.463514        -133.929         -58.1834         34.5598         -58.1839         34.5627      -0.00963793         149.498
0.526                  -0.485024        -134.359         -57.9895         31.3927           -57.99         31.3957      -0.00973636         149.431
0.527                   -0.50606        -134.781         -57.8069         28.1924         -57.8073         28.1956      -0.00983499         149.364
0.528                  -0.526373        -135.196         -57.6361         24.9662         -57.6366         24.9694      -0.00993369         149.296
0.529                   -0.54573        -135.604         -57.4776         21.7215          -57.478         21.7248       -0.0100324         149.229
0.53                   -0.563916        -136.007         -57.3317         18.4665          -57.332         18.4698       -0.0101309         149.161
0.531                  -0.580756        -136.405         -57.1983         15.2093         -57.1986         15.2125       -0.0102293         149.094
0.532                  -0.596115        -136.801         -57.0776          11.958         -57.0778         11.9611       -0.0103274         149.026
0.533                  -0.609906        -137.196         -56.9692         8.72084         -56.9693         8.72379       -0.0104252         148.958
0.534                  -0.622095        -137.593         -56.8727         5.50546         -56.8728         5.50821       -0.0105228          148.89
0.535                  -0.632696        -137.991         -56.7878          2.3192         -56.7879         2.32171       -0.0106201         148.822
0.536                  -0.641767        -138.395         -56.7138       -0.831241         -56.7138       -0.829019       -0.0107171         148.754
0.537                  -0.649405        -138.804         -56.6499        -3.93984         -56.6498        -3.93793       -0.0108141         148.686
0.538                  -0.655738         -139.22         -56.5954        -7.00133         -56.5953        -6.99977       -0.0109109         148.618
0.539                  -0.660912        -139.645         -56.5494        -10.0113         -56.5492        -10.0101       -0.0110077         148.549
0.54                   -0.665091        -140.078          -56.511         -12.966         -56.5107        -12.9652       -0.0111046         148.481
0.541                   -0.66844        -140.522         -56.4792        -15.8627         -56.4789        -15.8623       -0.0112017         148.412
0.542                  -0.671128        -140.976         -56.4531        -18.6994         -56.4528        -18.6994        -0.011299         148.343
0.543                  -0.673314         -141.44         -56.4319        -21.4747         -56.4316        -21.4751       -0.0113967         148.274
0.544                  -0.675153        -141.915         -56.4145         -24.188         -56.4142        -24.1887       -0.0114949         148.205
0.545                  -0.676784        -142.401         -56.4003        -26.8391         -56.3999        -26.8403       -0.0115937         148.136
0.546                  -0.678338        -142.898         -56.3882        -29.4287         -56.3878        -29.4303       -0.0116931         148.067
0.547                  -0.679929        -143.405         -56.3776        -31.9577         -56.3773        -31.9595       -0.0117933         147.998
0.548                  -0.681662        -143.923         -56.3678        -34.4273         -56.3674        -34.4295       -0.0118943         147.928
0.549                  -0.683628         -144.45         -56.3581        -36.8393         -56.3577        -36.8417       -0.0119962         147.859
0.55                   -0.685908        -144.988         -56.3478        -39.1954         -56.3475        -39.1981       -0.0120991         147.789
0.551                  -0.688574        -145.536         -56.3365        -41.4979         -56.3361        -41.5008       -0.0122031         147.719
0.552                  -0.691687        -146.093         -56.3236         -43.749         -56.3233        -43.7521       -0.0123082         147.649
0.553                  -0.695305        -146.659         -56.3087        -45.9511         -56.3084        -45.9544       -0.0124145         147.579
0.554                  -0.699476        -147.235         -56.2914        -48.1066         -56.2911          -48.11       -0.0125221         147.509
0.555                  -0.704245        -147.819         -56.2713        -50.2181          -56.271        -50.2217       -0.0126309         147.439
0.556                  -0.709655        -148.413         -56.2481        -52.2881         -56.2477        -52.2918       -0.0127411         147.368
0.557                  -0.715743        -149.014         -56.2215        -54.3192         -56.2211        -54.3229       -0.0128527         147.298
0.558                  -0.722546        -149.625         -56.1912        -56.3139         -56.1909        -56.3176       -0.0129658         147.227
0.559                  -0.730099        -150.244         -56.1571        -58.2748         -56.1568        -58.2785       -0.0130803         147.156
0.56                   -0.738437        -150.871         -56.1189        -60.2042         -56.1186        -60.2079       -0.0131963         147.086
0.561                  -0.747596        -151.507         -56.0765        -62.1047         -56.0762        -62.1083       -0.0133138         147.015
0.562                  -0.757611        -152.151         -56.0297        -63.9787         -56.0294        -63.9822        -0.013433         146.943
0.563                  -0.768519        -152.803         -55.9785        -65.8285         -55.9782        -65.8319       -0.0135537         146.872
0.564                  -0.780359        -153.463         -55.9226        -67.6565         -55.9224        -67.6598       -0.0136761         146.801
0.565                  -0.793171        -154.131         -55.8621        -69.4649         -55.8619        -69.4681       -0.0138002         146.729
0.566                  -0.806999        -154.808         -55.7969         -71.256         -55.7967         -71.259        -0.013926         146.657
0.567                  -0.821889        -155.492         -55.7269        -73.0319         -55.7267        -73.0347       -0.0140535         146.586
0.568                  -0.837889        -156.185          -55.652        -74.7948         -55.6518        -74.7974       -0.0141828         146.514
0.569                  -0.855052        -156.886         -55.5723        -76.5468         -55.5721        -76.5492        -0.014314         146.441
0.57                   -0.873434        -157.596         -55.4877          -78.29         -55.4876        -78.2922       -0.0144469         146.369
0.571                  -0.893096        -158.313         -55.3983        -80.0263         -55.3981        -80.0283       -0.0145817         146.297
0.572                  -0.914103        -159.039         -55.3039        -81.7579         -55.3038        -81.7597       -0.0147184         146.224
0.573                  -0.936524        -159.772         -55.2047        -83.4867         -55.2046        -83.4883        -0.014857         146.152
0.574                  -0.960434        -160.514         -55.1007        -85.2147         -55.1005         -85.216       -0.0149976         146.079
0.575                  -0.985912        -161.264         -54.9919        -86.9437         -54.9917        -86.9448       -0.0151402         146.006
0.576                   -1.01304        -162.022         -54.8783        -88.6758         -54.8781        -88.6766       -0.0152848         145.933
0.577                   -1.04192        -162.789           -54.76        -90.4128         -54.7598        -90.4134       -0.0154314         145.859
0.578                   -1.07264        -163.562          -54.637        -92.1566         -54.6369        -92.1569       -0.0155802         145.786
0.579                    -1.1053        -164.344         -54.5096        -93.9091         -54.5094        -93.9092        -0.015731         145.712
0.58                    -1.14001        -165.133         -54.3776        -95.6722         -54.3774        -95.6721       -0.0158841         145.639
0.581                    -1.1769        -165.929         -54.2412        -97.4477         -54.2411        -97.4473       -0.0160393         145.565
0.582                   -1.21608        -166.733         -54.1006        -99.2375         -54.1004        -99.2369       -0.0161968         145.491
0.583                   -1.25769        -167.543         -53.9558        -101.043         -53.9556        -101.043       -0.0163566         145.417
0.584                   -1.30185        -168.359          -53.807        -102.867         -53.8068        -102.866       -0.0165187         145.342
0.585                   -1.34871         -169.18         -53.6543        -104.711         -53.6542         -104.71       -0.0166831         145.268
0.586                   -1.39842        -170.007          -53.498        -106.576         -53.4978        -106.574         -0.01685         145.193
0.587                   -1.45112        -170.837         -53.3381        -108.464         -53.3379        -108.463       -0.0170193         145.118
0.588                   -1.50699        -171.672         -53.1748        -110.377         -53.1746        -110.376       -0.0171912         145.043
0.589                   -1.56617        -172.508         -53.0085        -112.317         -53.0083        -112.315       -0.0173655         144.968
0.59                    -1.62882        -173.346         -52.8393        -114.286         -52.8391        -114.284       -0.0175425         144.893
0.591                   -1.69511        -174.183         -52.6674        -116.284         -52.6672        -116.282       -0.0177221         144.817
0.592                    -1.7652        -175.019         -52.4932        -118.313          -52.493        -118.311       -0.0179044         144.741
0.593                   -1.83922        -175.852          -52.317        -120.376         -52.3168        -120.374       -0.0180894         144.665
0.594                   -1.91733         -176.68          -52.139        -122.472         -52.1388         -122.47       -0.0182772         144.589
0.595                   -1.99965          -177.5         -51.9596        -124.604         -51.9593        -124.602       -0.0184678         144.513
0.596                   -2.08628         -178.31         -51.7791        -126.773         -51.7789         -126.77       -0.0186613         144.437
0.597                    -2.1773        -179.108          -51.598        -128.978         -51.5978        -128.976       -0.0188577          144.36
0.598                   -2.27275         -179.89         -51.4166        -131.222         -51.4164         -131.22       -0.0190571         144.283
0.599                   -2.37265         179.346         -51.2354        -133.505         -51.2352        -133.503       -0.0192594         144.206
0.6                     -2.47694         178.604         -51.0548        -135.826         -51.0545        -135.824       -0.0194648         144.129
0.601                   -2.58551         177.888         -50.8751        -138.187         -50.8749        -138.185       -0.0196733         144.052
0.602                   -2.69818         177.201          -50.697        -140.587         -50.6968        -140.585       -0.0198849         143.974
0.603                   -2.81469         176.548         -50.5208        -143.025         -50.5206        -143.023       -0.0200997         143.896
0.604                   -2.93468         175.932         -50.3471          -145.5         -50.3468        -145.499       -0.0203176         143.819
0.605                   -3.05768         175.358         -50.1762        -148.013          -50.176        -148.012       -0.0205387          143.74
0.606                   -3.18311          174.83         -50.0087         -150.56         -50.0085        -150.559        -0.020763         143.662
0.607                   -3.31029         174.352         -49.8449        -153.141         -49.8448        -153.141       -0.0209904         143.583
0.608                   -3.43837         173.926         -49.6854        -155.754         -49.6853        -155.753       -0.0212211         143.505
0.609                   -3.56642         173.555         -49.5306        -158.396         -49.5304        -158.395        -0.021455         143.426
0.61                    -3.69338         173.242         -49.3806        -161.064         -49.3805        -161.064       -0.0216921         143.347
0.611                   -3.81807         172.987          -49.236        -163.756         -49.2359        -163.756       -0.0219324         143.267
0.612                   -3.93926         172.791          -49.097        -166.468         -49.0969        -166.468       -0.0221758         143.188
0.613                   -4.05564         172.651         -48.9638        -169.197         -48.9637        -169.197       -0.0224224         143.108
0.614                   -4.16592         172.566         -48.8366         -171.94         -48.8365         -171.94       -0.0226721         143.028
0.615                   -4.26881         172.529         -48.7154        -174.692         -48.7154        -174.692       -0.0229248         142.948
0.616                   -4.36312         172.536         -48.6005         -177.45         -48.6004        -177.451       -0.0231806         142.867
0.617                   -4.44779         172.579         -48.4916          179.79         -48.4916         179.789       -0.0234394         142.786
0.618                   -4.52193          172.65         -48.3888         177.031         -48.3888          177.03       -0.0237013         142.705
0.619                   -4.58488         172.738          -48.292         174.277          -48.292         174.276       -0.0239661         142.624
0.62                    -4.63621         172.834         -48.2009         171.532         -48.2009         171.531       -0.0242339         142.543
0.621                   -4.67578         172.926         -48.1154         168.798         -48.1154         168.797       -0.0245047         142.461
0.622                   -4.70372         173.004          -48.035         166.079         -48.0351         166.078       -0.0247785         142.379
0.623                   -4.72039         173.058         -47.9596         163.378         -47.9597         163.377       -0.0250553         142.297
0.624                   -4.72641         173.078         -47.8888         160.697         -47.8888         160.696       -0.0253352         142.215
0.625                    -4.7226         173.055         -47.8221         158.038         -47.8221         158.037       -0.0256182         142.132
0.626                   -4.70992         172.983         -47.7592         155.404         -47.7592         155.402       -0.0259044         142.049
0.627                   -4.68945         172.855         -47.6996         152.794         -47.6997         152.793       -0.0261939         141.966
0.628                   -4.66235         172.665          -47.643         150.212          -47.643         150.211       -0.0264868         141.882
0.629                   -4.62978         172.412         -47.5888         147.657         -47.5889         147.656       -0.0267831         141.799
0.63                    -4.59291         172.092         -47.5367          145.13         -47.5368         145.129        -0.027083         141.715
0.631                   -4.55287         171.705         -47.4863         142.632         -47.4864         142.631       -0.0273867          141.63
0.632                   -4.51073         171.249         -47.4372         140.162         -47.4372         140.161       -0.0276942         141.546
0.633                    -4.4675         170.726         -47.3889          137.72         -47.3889         137.719       -0.0280057         141.461
0.634                   -4.42407         170.136         -47.3411         135.306         -47.3411         135.305       -0.0283214         141.376
0.635                   -4.38127         169.482         -47.2935         132.919         -47.2935         132.918       -0.0286414          141.29
0.636                   -4.33985         168.764         -47.2457         130.558         -47.2457         130.557       -0.0289659         141.205
0.637                   -4.30046         167.986         -47.1974         128.222         -47.1974         128.221        -0.029295         141.119
0.638                   -4.26368         167.149         -47.1484          125.91         -47.1484         125.909       -0.0296288         141.032
0.639                   -4.23002         166.255         -47.0984          123.62         -47.0984          123.62       -0.0299677         140.946
0.64                    -4.19993         165.308         -47.0471         121.352         -47.0471         121.351       -0.0303117         140.859
0.641                   -4.17379         164.308         -46.9945         119.103         -46.9944         119.103       -0.0306609         140.771
0.642                   -4.15196         163.259         -46.9401         116.873         -46.9401         116.873       -0.0310156         140.684
0.643                   -4.13474         162.162         -46.8841         114.659          -46.884         114.659       -0.0313759         140.596
0.644                   -4.12241          161.02         -46.8261          112.46          -46.826          112.46        -0.031742         140.507
0.645                   -4.11523         159.833         -46.7661         110.274          -46.766         110.274       -0.0321141         140.419
0.646                   -4.11343         158.603         -46.7039         108.099         -46.7038         108.099       -0.0324922          140.33
0.647                   -4.11724         157.332         -46.6396         105.935         -46.6395         105.935       -0.0328766          140.24
0.648                   -4.12687         156.021         -46.5731         103.778          -46.573         103.778       -0.0332674         140.151
0.649                   -4.14255         154.671         -46.5042         101.628         -46.5042         101.628       -0.0336649         140.061
0.65                    -4.16449         153.283         -46.4331         99.4821         -46.4331         99.4819       -0.0340691          139.97
0.651                   -4.19292         151.859         -46.3598         97.3393         -46.3597         97.3392       -0.0344803         139.879
0.652                   -4.22809         150.398         -46.2841          95.198          -46.284         95.1978       -0.0348985         139.788
0.653                   -4.27023         148.901         -46.2063         93.0563         -46.2062         93.0561       -0.0353241         139.697
0.654                   -4.31961          147.37         -46.1263         90.9128         -46.1262         90.9127       -0.0357571         139.605
0.655                   -4.37653         145.804         -46.0442          88.766         -46.0441         88.7659       -0.0361978         139.513
0.656                   -4.44128         144.204         -45.9601         86.6145         -45.9601         86.6143       -0.0366463          139.42
0.657                   -4.51421         142.571         -45.8742         84.4568         -45.8741         84.4565       -0.0371029         139.327
0.658                   -4.59566         140.905         -45.7864         82.2916         -45.7864         82.2913       -0.0375677         139.233
0.659                   -4.68603         139.206         -45.6971         80.1176          -45.697         80.1174       -0.0380409         139.139
0.66                    -4.78574         137.475         -45.6062         77.9338         -45.6062         77.9336       -0.0385228         139.045
0.661                   -4.89524         135.713         -45.5141          75.739          -45.514         75.7388       -0.0390135          138.95
0.662                   -5.01502         133.919         -45.4207         73.5323         -45.4207          73.532       -0.0395132         138.855
0.663                   -5.14563         132.095         -45.3265         71.3127         -45.3265         71.3124       -0.0400223         138.759
0.664                   -5.28762         130.241         -45.2314         69.0795         -45.2314         69.0792       -0.0405408         138.663
0.665                   -5.44163         128.358         -45.1359          66.832         -45.1359         66.8318       -0.0410691         138.567
0.666                   -5.60834         126.447           -45.04         64.5698           -45.04         64.5695       -0.0416074          138.47
0.667                   -5.78846         124.509          -44.944         62.2923         -44.9441         62.2921       -0.0421558         138.372
0.668                    -5.9828         122.545         -44.8482         59.9994         -44.8482         59.9992       -0.0427147         138.274
0.669                    -6.1922         120.556         -44.7528         57.6908         -44.7528         57.6906       -0.0432843         138.176
0.67                     -6.4176         118.544          -44.658         55.3667         -44.6581         55.3666       -0.0438649         138.077
0.671                   -6.66001         116.512         -44.5641         53.0273         -44.5642         53.0272       -0.0444566         137.978
0.672                   -6.92053          114.46         -44.4714         50.6728         -44.4714         50.6727       -0.0450597         137.878
0.673                   -7.20037         112.392           -44.38         48.3037         -44.3801         48.3037       -0.0456745         137.778
0.674                   -7.50086          110.31         -44.2903         45.9209         -44.2904         45.9209       -0.0463013         137.677
0.675                   -7.82346         108.219         -44.2025         43.5249         -44.2025          43.525       -0.0469402         137.575
0.676                    -8.1698          106.12         -44.1167          41.117         -44.1168         41.1171       -0.0475916         137.473
0.677                   -8.54169          104.02         -44.0333         38.6981         -44.0333         38.6982       -0.0482556         137.371
0.678                   -8.94118         101.922         -43.9523         36.2696         -43.9524         36.2698       -0.0489326         137.268
0.679                   -9.37057         99.8332         -43.8741         33.8328         -43.8742         33.8331       -0.0496227         137.164
0.68                    -9.83251         97.7602         -43.7987         31.3895         -43.7988         31.3898       -0.0503263          137.06
0.681                   -10.3301         95.7115         -43.7263         28.9411         -43.7263         28.9414       -0.0510435         136.955
0.682                   -10.8668          93.697          -43.657         26.4895          -43.657         26.4898       -0.0517746          136.85
0.683                   -11.4468         91.7291         -43.5909         24.0364         -43.5909         24.0368       -0.0525199         136.744
0.684                   -12.0752          89.823          -43.528         21.5839         -43.5281         21.5843       -0.0532796         136.638
0.685                   -12.7581         87.9985         -43.4684         19.1337         -43.4685         19.1342        -0.054054         136.531
0.686                   -13.5028         86.2812         -43.4122         16.6879         -43.4122         16.6884       -0.0548434         136.423
0.687                   -14.3185         84.7052         -43.3592         14.2484         -43.3593         14.2489       -0.0556481         136.315
0.688                   -15.2171         83.3181         -43.3095         11.8172         -43.3095         11.8176       -0.0564684         136.206
0.689                   -16.2134         82.1878         -43.2629         9.39598         -43.2629         9.39644       -0.0573045         136.096
0.69                    -17.3272         81.4153         -43.2194         6.98674         -43.2194         6.98718       -0.0581569         135.986
0.691                   -18.5845          81.158         -43.1788         4.59116         -43.1788         4.59158       -0.0590259         135.875
0.692                   -20.0198         81.6746         -43.1409         2.21088          -43.141         2.21129       -0.0599119         135.763
0.693                   -21.6781          83.416         -43.1057       -0.152544         -43.1058       -0.152166       -0.0608153         135.651
0.694                   -23.6104          87.221         -43.0729        -2.49771          -43.073        -2.49737       -0.0617366         135.538
0.695                   -25.8373         94.7262         -43.0424        -4.82334         -43.0424        -4.82303       -0.0626761         135.424
0.696                   -28.1734          108.93         -43.0138        -7.12827         -43.0138          -7.128       -0.0636344         135.309