! TOUCHSTONE file generated by CST MICROWAVE STUDIO
! Date and time: Sat Nov 14 19:59:31 2020
! Project name: Scenario_1_Planar_Body_Tissue_Out_of_Line.cst
! Parameters = {dy1=207.6; L_HA=400; Ltissue=700; MT=2.54; Rad_Dielectric=30; Rad_Lower=7.3; Rad_Upper=30; Wtissue=700; a_HA=580; a_WG=246; b_HA=500; b_WG=121; c_HA=0; c_WG=187; d_feed=85; dx1=693; h_feed=15; h_lower=18; h_upper=40; hfat=3; hgap=25; hmuscle=50; hskin=1.5}
! Header version: 2018
! Port assignment regex: !\s*Touchstone port\s*([0-9]+)\s*=\s*(CST MWS port|CST DS port)\s*([0-9]+|Zmin|Zmax)\s*\(\"(.*)\"\)(\s*mode\s*([0-9]+))?.*
! Touchstone port assignment:
! Touchstone port 1 = CST MWS port 1 ("")
! Touchstone port 2 = CST MWS port 2 ("")
# GHz S DB R 50
0.5                    -0.186014        -121.544         -62.3813         179.421         -62.3811         179.424       -0.0076585         151.164
0.501                  -0.187747        -121.964         -62.3559         178.122         -62.3557         178.126       -0.0077192         151.099
0.502                  -0.189552        -122.388          -62.328         176.809         -62.3278         176.813      -0.00778041         151.034
0.503                  -0.191432        -122.814         -62.2977         175.479         -62.2974         175.484      -0.00784213         150.968
0.504                   -0.19339        -123.242         -62.2648         174.135         -62.2644          174.14      -0.00790439         150.903
0.505                  -0.195429        -123.674         -62.2291         172.775         -62.2287         172.781      -0.00796718         150.838
0.506                  -0.197555        -124.109         -62.1907         171.401         -62.1903         171.406      -0.00803052         150.772
0.507                  -0.199769        -124.546         -62.1495         170.011          -62.149         170.017      -0.00809441         150.707
0.508                  -0.202078        -124.986         -62.1053         168.606         -62.1048         168.613      -0.00815889         150.641
0.509                  -0.204484         -125.43         -62.0581         167.187         -62.0575         167.194      -0.00822394         150.576
0.51                   -0.206992        -125.876         -62.0078         165.754         -62.0072         165.761      -0.00828959          150.51
0.511                  -0.209608        -126.326         -61.9544         164.306         -61.9537         164.314      -0.00835584         150.444
0.512                  -0.212337        -126.779         -61.8976         162.844         -61.8969         162.852      -0.00842271         150.378
0.513                  -0.215184        -127.235         -61.8376         161.368         -61.8369         161.377      -0.00849021         150.312
0.514                  -0.218155        -127.695         -61.7741         159.879         -61.7734         159.888      -0.00855836         150.246
0.515                  -0.221256        -128.158         -61.7072         158.377         -61.7064         158.386      -0.00862716          150.18
0.516                  -0.224494        -128.625         -61.6367         156.861         -61.6359         156.871      -0.00869664         150.114
0.517                  -0.227876        -129.095         -61.5625         155.333         -61.5617         155.343      -0.00876679         150.048
0.518                   -0.23141        -129.568         -61.4847         153.793         -61.4839         153.803      -0.00883765         149.981
0.519                  -0.235103        -130.046         -61.4032          152.24         -61.4023          152.25      -0.00890921         149.915
0.52                   -0.238964        -130.527         -61.3178         150.675          -61.317         150.686      -0.00898151         149.848
0.521                  -0.243002        -131.012         -61.2286         149.099         -61.2278          149.11      -0.00905454         149.782
0.522                  -0.247226        -131.501         -61.1355         147.512         -61.1346         147.523      -0.00912833         149.715
0.523                  -0.251648        -131.994         -61.0384         145.914         -61.0376         145.925      -0.00920289         149.648
0.524                  -0.256277        -132.491         -60.9373         144.306         -60.9365         144.317      -0.00927825         149.581
0.525                  -0.261126        -132.992         -60.8322         142.687         -60.8314         142.698       -0.0093544         149.514
0.526                  -0.266208        -133.498          -60.723         141.058         -60.7222         141.069      -0.00943138         149.447
0.527                  -0.271535        -134.008         -60.6097         139.419         -60.6089         139.431       -0.0095092          149.38
0.528                  -0.277122        -134.522         -60.4923         137.771         -60.4914         137.783      -0.00958788         149.313
0.529                  -0.282985        -135.041         -60.3707         136.114         -60.3699         136.125      -0.00966743         149.245
0.53                    -0.28914        -135.565          -60.245         134.447         -60.2441         134.459      -0.00974788         149.178
0.531                  -0.295605        -136.093          -60.115         132.772         -60.1141         132.784      -0.00982924         149.111
0.532                  -0.302399        -136.626         -59.9808         131.088           -59.98           131.1      -0.00991154         149.043
0.533                  -0.309542        -137.165         -59.8425         129.396         -59.8416         129.408      -0.00999479         148.975
0.534                  -0.317056        -137.708         -59.6999         127.695         -59.6991         127.707        -0.010079         148.907
0.535                  -0.324965        -138.257         -59.5531         125.986         -59.5523         125.998       -0.0101643         148.839
0.536                  -0.333294         -138.81         -59.4021         124.269         -59.4013          124.28       -0.0102505         148.771
0.537                  -0.342071         -139.37          -59.247         122.543         -59.2462         122.554       -0.0103378         148.703
0.538                  -0.351326        -139.934         -59.0876         120.809         -59.0868          120.82       -0.0104262         148.635
0.539                  -0.361089        -140.505         -58.9241         119.066         -58.9233         119.077       -0.0105157         148.567
0.54                   -0.371395        -141.081         -58.7564         117.315         -58.7557         117.325       -0.0106062         148.498
0.541                  -0.382281        -141.663         -58.5846         115.554         -58.5839         115.565        -0.010698          148.43
0.542                  -0.393787        -142.251         -58.4088         113.785          -58.408         113.795       -0.0107909         148.361
0.543                  -0.405956        -142.846         -58.2288         112.006         -58.2281         112.016       -0.0108851         148.292
0.544                  -0.418834        -143.446         -58.0449         110.217         -58.0442         110.226       -0.0109804         148.223
0.545                  -0.432471        -144.053         -57.8569         108.417         -57.8563         108.427       -0.0110771         148.154
0.546                  -0.446923        -144.666         -57.6651         106.607         -57.6644         106.616        -0.011175         148.085
0.547                  -0.462247        -145.286         -57.4693         104.785         -57.4686         104.794       -0.0112743         148.016
0.548                  -0.478506        -145.913         -57.2696         102.951          -57.269         102.959        -0.011375         147.947
0.549                  -0.495769        -146.546         -57.0662         101.104         -57.0656         101.112       -0.0114771         147.877
0.55                    -0.51411        -147.186         -56.8591         99.2432         -56.8585         99.2509       -0.0115807         147.808
0.551                  -0.533609        -147.832         -56.6483         97.3679         -56.6477         97.3753       -0.0116857         147.738
0.552                  -0.554351        -148.486         -56.4339         95.4771         -56.4333         95.4841       -0.0117923         147.669
0.553                  -0.576429        -149.146          -56.216         93.5697         -56.2154         93.5763       -0.0119005         147.599
0.554                  -0.599943        -149.812         -55.9947         91.6446         -55.9941         91.6507       -0.0120103         147.529
0.555                  -0.625001        -150.486           -55.77         89.7005         -55.7695         89.7063       -0.0121218         147.459
0.556                  -0.651716        -151.165         -55.5422         87.7364         -55.5417         87.7417        -0.012235         147.388
0.557                  -0.680214        -151.851         -55.3113         85.7507         -55.3108         85.7556       -0.0123501         147.318
0.558                  -0.710624        -152.543         -55.0774          83.742         -55.0769         83.7466       -0.0124669         147.248
0.559                  -0.743088        -153.241         -54.8407          81.709         -54.8402         81.7131       -0.0125857         147.177
0.56                   -0.777752        -153.943         -54.6013         79.6499         -54.6009         79.6537       -0.0127064         147.106
0.561                  -0.814774         -154.65         -54.3595         77.5632         -54.3591         77.5666       -0.0128291         147.036
0.562                  -0.854317        -155.361         -54.1154         75.4472          -54.115         75.4502       -0.0129539         146.965
0.563                   -0.89655        -156.075         -53.8693         73.3001         -53.8689         73.3027       -0.0130809         146.893
0.564                  -0.941647        -156.791         -53.6213         71.1202          -53.621         71.1224       -0.0132101         146.822
0.565                  -0.989786        -157.507         -53.3719         68.9056         -53.3716         68.9075       -0.0133415         146.751
0.566                   -1.04114        -158.223         -53.1212         66.6545          -53.121          66.656       -0.0134753         146.679
0.567                   -1.09588        -158.936         -52.8696         64.3651         -52.8694         64.3663       -0.0136114         146.608
0.568                   -1.15418        -159.644         -52.6176         62.0357         -52.6174         62.0366       -0.0137501         146.536
0.569                   -1.21617        -160.346         -52.3654         59.6644         -52.3652          59.665       -0.0138912         146.464
0.57                    -1.28197        -161.039         -52.1135         57.2497         -52.1134           57.25       -0.0140349         146.392
0.571                   -1.35168        -161.719         -51.8625           54.79         -51.8624         54.7901       -0.0141812          146.32
0.572                   -1.42533        -162.383         -51.6128          52.284         -51.6128         52.2839       -0.0143302         146.248
0.573                    -1.5029        -163.028         -51.3651         49.7305          -51.365         49.7302       -0.0144819         146.176
0.574                    -1.5843         -163.65         -51.1198         47.1287         -51.1198         47.1283       -0.0146362         146.103
0.575                   -1.66935        -164.245         -50.8777          44.478         -50.8777         44.4774       -0.0147933          146.03
0.576                   -1.75774        -164.807         -50.6394         41.7781         -50.6395         41.7774        -0.014953         145.958
0.577                   -1.84907        -165.333         -50.4057         39.0293         -50.4058         39.0286       -0.0151154         145.885
0.578                   -1.94275        -165.818         -50.1773         36.2323         -50.1774         36.2315       -0.0152805         145.812
0.579                   -2.03809        -166.258         -49.9549         33.3882          -49.955         33.3874        -0.015448         145.738
0.58                    -2.13418        -166.648         -49.7393         30.4988         -49.7394          30.498        -0.015618         145.665
0.581                      -2.23        -166.987         -49.5312         27.5665         -49.5314         27.5658       -0.0157904         145.591
0.582                   -2.32436        -167.272         -49.3314         24.5944         -49.3316         24.5937       -0.0159649         145.518
0.583                   -2.41595        -167.502         -49.1406         21.5861         -49.1408         21.5854       -0.0161414         145.444
0.584                    -2.5034        -167.678         -48.9594         18.5458         -48.9596         18.5453       -0.0163198          145.37
0.585                   -2.58527        -167.804         -48.7884         15.4785         -48.7886          15.478       -0.0164999         145.296
0.586                   -2.66021        -167.883         -48.6281         12.3896         -48.6283         12.3892       -0.0166814         145.222
0.587                   -2.72694        -167.923         -48.4789         9.28491         -48.4791         9.28462       -0.0168642         145.148
0.588                    -2.7844        -167.931         -48.3411         6.17081         -48.3412          6.1706        -0.017048         145.073
0.589                   -2.83174        -167.917         -48.2148          3.0538         -48.2149         3.05367       -0.0172327         144.998
0.59                    -2.86842        -167.893         -48.1001      -0.0594179         -48.1002       -0.059486       -0.0174181         144.924
0.591                   -2.89425        -167.869         -47.9969        -3.16216          -47.997        -3.16218       -0.0176041         144.849
0.592                   -2.90935        -167.856          -47.905        -6.24784         -47.9051        -6.24784       -0.0177905         144.773
0.593                   -2.91414        -167.864         -47.8241        -9.31013         -47.8241        -9.31014       -0.0179772         144.698
0.594                   -2.90935        -167.905         -47.7536        -12.3431         -47.7536        -12.3431       -0.0181643         144.623
0.595                    -2.8959        -167.985         -47.6932        -15.3412         -47.6931        -15.3413       -0.0183517         144.547
0.596                   -2.87488        -168.111          -47.642        -18.2996         -47.6419        -18.2997       -0.0185395         144.471
0.597                   -2.84746        -168.288         -47.5995        -21.2139         -47.5994        -21.2141       -0.0187277         144.395
0.598                   -2.81484         -168.52         -47.5647        -24.0804         -47.5646        -24.0808       -0.0189164         144.319
0.599                   -2.77822        -168.808         -47.5371        -26.8963         -47.5369        -26.8967       -0.0191058         144.243
0.6                     -2.73873        -169.153         -47.5156        -29.6591         -47.5154        -29.6597       -0.0192961         144.166
0.601                    -2.6974        -169.555         -47.4994        -32.3673         -47.4992         -32.368       -0.0194874         144.089
0.602                   -2.65517        -170.013         -47.4878        -35.0198         -47.4876        -35.0207         -0.01968         144.013
0.603                   -2.61286        -170.524         -47.4799        -37.6163         -47.4797        -37.6174       -0.0198739         143.935
0.604                   -2.57118        -171.086         -47.4749        -40.1568         -47.4747         -40.158       -0.0200696         143.858
0.605                   -2.53073        -171.696         -47.4721         -42.642         -47.4719        -42.6434        -0.020267         143.781
0.606                     -2.492        -172.353         -47.4707         -45.073         -47.4705        -45.0745       -0.0204666         143.703
0.607                   -2.45541        -173.052           -47.47        -47.4511         -47.4698        -47.4527       -0.0206684         143.625
0.608                   -2.42128        -173.792         -47.4695        -49.7782         -47.4693        -49.7799       -0.0208726         143.547
0.609                   -2.38988         -174.57         -47.4685        -52.0561         -47.4684        -52.0579       -0.0210795         143.468
0.61                    -2.36139        -175.383         -47.4666        -54.2872         -47.4664        -54.2891       -0.0212892          143.39
0.611                   -2.33599        -176.229         -47.4632         -56.474          -47.463        -56.4758       -0.0215018         143.311
0.612                   -2.31379        -177.107         -47.4579        -58.6189         -47.4577        -58.6207       -0.0217176         143.232
0.613                   -2.29487        -178.014         -47.4503        -60.7246         -47.4502        -60.7264       -0.0219366         143.153
0.614                   -2.27931        -178.948           -47.44        -62.7938           -47.44        -62.7956        -0.022159         143.073
0.615                   -2.26715        -179.909         -47.4269        -64.8294         -47.4268        -64.8312       -0.0223849         142.993
0.616                   -2.25843         179.105         -47.4106        -66.8342         -47.4105        -66.8359       -0.0226144         142.914
0.617                    -2.2532         178.094         -47.3909         -68.811         -47.3908        -68.8125       -0.0228477         142.833
0.618                   -2.25147         177.061         -47.3676        -70.7626         -47.3676         -70.764       -0.0230848         142.753
0.619                   -2.25328         176.005         -47.3406        -72.6918         -47.3406         -72.693       -0.0233258         142.672
0.62                    -2.25865         174.928         -47.3097        -74.6012         -47.3097        -74.6023       -0.0235708         142.592
0.621                   -2.26763          173.83          -47.275        -76.4937          -47.275        -76.4946       -0.0238199         142.511
0.622                   -2.28026         172.711         -47.2363        -78.3717         -47.2363        -78.3724       -0.0240732         142.429
0.623                   -2.29659         171.571         -47.1936         -80.238         -47.1937        -80.2385       -0.0243307         142.348
0.624                   -2.31667         170.412          -47.147        -82.0948          -47.147        -82.0952       -0.0245925         142.266
0.625                   -2.34058         169.233         -47.0964        -83.9447         -47.0965        -83.9449       -0.0248588         142.184
0.626                   -2.36839         168.034          -47.042        -85.7899          -47.042        -85.7899       -0.0251295         142.101
0.627                   -2.40021         166.815         -46.9837        -87.6326         -46.9837        -87.6324       -0.0254048         142.019
0.628                   -2.43613         165.577         -46.9217        -89.4749         -46.9217        -89.4745       -0.0256847         141.936
0.629                   -2.47627          164.32         -46.8561        -91.3188         -46.8561        -91.3182       -0.0259692         141.853
0.63                    -2.52077         163.043          -46.787        -93.1661          -46.787        -93.1654       -0.0262586          141.77
0.631                   -2.56977         161.746         -46.7147        -95.0186         -46.7146        -95.0178       -0.0265527         141.686
0.632                   -2.62344          160.43         -46.6391         -96.878         -46.6391         -96.877       -0.0268518         141.602
0.633                   -2.68195         159.095         -46.5606        -98.7457         -46.5605        -98.7447       -0.0271558         141.518
0.634                    -2.7455          157.74         -46.4792        -100.623         -46.4792        -100.622       -0.0274649         141.433
0.635                   -2.81431         156.366         -46.3953        -102.512         -46.3952         -102.51        -0.027779         141.349
0.636                    -2.8886         154.973          -46.309        -104.412         -46.3089        -104.411       -0.0280984         141.264
0.637                   -2.96863          153.56         -46.2205        -106.326         -46.2203        -106.325        -0.028423         141.178
0.638                   -3.05468         152.128           -46.13        -108.253         -46.1298        -108.252        -0.028753         141.093
0.639                   -3.14702         150.678         -46.0378        -110.196         -46.0376        -110.195       -0.0290884         141.007
0.64                    -3.24597         149.209          -45.944        -112.153         -45.9439        -112.152       -0.0294293         140.921
0.641                   -3.35188         147.722          -45.849        -114.127         -45.8489        -114.126       -0.0297758         140.834
0.642                   -3.46509         146.217          -45.753        -116.116         -45.7528        -116.115       -0.0301279         140.748
0.643                     -3.586         144.696         -45.6561        -118.122         -45.6559        -118.121       -0.0304858         140.661
0.644                   -3.71501         143.158         -45.5586        -120.144         -45.5584        -120.144       -0.0308496         140.573
0.645                   -3.85256         141.605         -45.4607        -122.183         -45.4605        -122.182       -0.0312192         140.485
0.646                    -3.9991         140.037         -45.3626        -124.238         -45.3624        -124.237       -0.0315949         140.397
0.647                   -4.15514         138.457         -45.2645        -126.309         -45.2644        -126.309       -0.0319767         140.309
0.648                   -4.32119         136.865         -45.1667        -128.396         -45.1666        -128.395       -0.0323647          140.22
0.649                    -4.4978         135.264         -45.0693        -130.498         -45.0692        -130.497        -0.032759         140.131
0.65                    -4.68556         133.654         -44.9725        -132.615         -44.9724        -132.614       -0.0331597         140.042
0.651                   -4.88509         132.039         -44.8765        -134.746         -44.8764        -134.746       -0.0335669         139.952
0.652                   -5.09704         130.422         -44.7814        -136.891         -44.7813        -136.891       -0.0339807         139.862
0.653                    -5.3221         128.804         -44.6874        -139.048         -44.6873        -139.048       -0.0344012         139.772
0.654                     -5.561          127.19         -44.5946        -141.218         -44.5946        -141.218       -0.0348285         139.681
0.655                   -5.81453         125.584         -44.5032          -143.4         -44.5032          -143.4       -0.0352628          139.59
0.656                   -6.08348          123.99         -44.4133        -145.592         -44.4132        -145.592       -0.0357042         139.498
0.657                   -6.36874         122.413         -44.3249        -147.794         -44.3249        -147.794       -0.0361527         139.406
0.658                   -6.67121          120.86         -44.2382        -150.006         -44.2382        -150.006       -0.0366085         139.314
0.659                   -6.99186         119.336         -44.1533        -152.225         -44.1533        -152.225       -0.0370717         139.222
0.66                    -7.33172         117.851         -44.0703        -154.452         -44.0703        -154.452       -0.0375425         139.129
0.661                   -7.69186         116.411         -43.9893        -156.685         -43.9893        -156.685       -0.0380209         139.035
0.662                   -8.07344         115.029         -43.9102        -158.924         -43.9102        -158.924       -0.0385072         138.941
0.663                   -8.47764         113.716         -43.8333        -161.168         -43.8333        -161.168       -0.0390015         138.847
0.664                   -8.90572         112.485         -43.7586        -163.416         -43.7585        -163.416       -0.0395039         138.752
0.665                     -9.359         111.354          -43.686        -165.667          -43.686        -165.667       -0.0400145         138.657
0.666                    -9.8388         110.341         -43.6158         -167.92         -43.6158         -167.92       -0.0405336         138.562
0.667                   -10.3464          109.47         -43.5479        -170.174         -43.5479        -170.175       -0.0410612         138.466
0.668                   -10.8832         108.767         -43.4825        -172.429         -43.4824        -172.429       -0.0415976         138.369
0.669                   -11.4501         108.266         -43.4195        -174.682         -43.4194        -174.683       -0.0421429         138.273
0.67                     -12.048         108.006          -43.359        -176.934         -43.3589        -176.935       -0.0426973         138.175
0.671                    -12.677         108.036          -43.301        -179.183          -43.301        -179.184       -0.0432611         138.078
0.672                   -13.3365         108.412         -43.2457         178.572         -43.2456         178.571       -0.0438342         137.979
0.673                    -14.024         109.204         -43.1929         176.332         -43.1929         176.331       -0.0444171         137.881
0.674                   -14.7349         110.493         -43.1428         174.099         -43.1428         174.097       -0.0450099         137.782
0.675                   -15.4606         112.372         -43.0953         171.874         -43.0953         171.872       -0.0456127         137.682
0.676                   -16.1872          114.94         -43.0505         169.659         -43.0505         169.656       -0.0462259         137.582
0.677                   -16.8934         118.288         -43.0082         167.454         -43.0083         167.451       -0.0468496         137.481
0.678                   -17.5492          122.48         -42.9686         165.261         -42.9687         165.258       -0.0474842          137.38
0.679                   -18.1161         127.512         -42.9314         163.082         -42.9315         163.078       -0.0481297         137.278
0.68                    -18.5513         133.275         -42.8966         160.918         -42.8968         160.915       -0.0487866         137.176
0.681                   -18.8173         139.529         -42.8641         158.771         -42.8644         158.768        -0.049455         137.073
0.682                   -18.8934         145.926         -42.8338         156.643         -42.8341         156.639       -0.0501353          136.97
0.683                   -18.7837         152.084         -42.8055         154.534         -42.8059          154.53       -0.0508277         136.866
0.684                   -18.5152         157.683         -42.7789         152.446         -42.7794         152.442       -0.0515326         136.761
0.685                    -18.128         162.527          -42.754         150.381         -42.7545         150.377       -0.0522502         136.656
0.686                   -17.6638         166.543         -42.7304         148.339          -42.731         148.335       -0.0529808         136.551
0.687                   -17.1583         169.753         -42.7079         146.321         -42.7086         146.318       -0.0537249         136.445
0.688                   -16.6384         172.233         -42.6863         144.329          -42.687         144.326       -0.0544828         136.338
0.689                   -16.1224         174.077         -42.6652         142.362         -42.6659          142.36       -0.0552547          136.23
0.69                    -15.6219         175.381         -42.6443         140.422         -42.6451         140.419       -0.0560412         136.122
0.691                   -15.1439         176.234         -42.6234         138.508         -42.6242         138.506       -0.0568425         136.013
0.692                   -14.6919         176.709         -42.6022          136.62          -42.603         136.618       -0.0576591         135.904
0.693                   -14.2675          176.87         -42.5803         134.758         -42.5811         134.757       -0.0584915         135.794
0.694                   -13.8709         176.771         -42.5574         132.922         -42.5582         132.922         -0.05934         135.683
0.695                   -13.5015         176.452         -42.5333         131.112         -42.5341         131.111       -0.0602051         135.572
0.696                   -13.1583         175.951         -42.5078         129.325         -42.5085         129.325       -0.0610873          135.46