! TOUCHSTONE file generated by CST MICROWAVE STUDIO
! Date and time: Mon Sep 28 14:08:21 2020
! Project name: Scenario_1_Free_SPace.cst
! Parameters = {dx1=415.7; L_HA=400; MT=2.54; Rad_Dielectric=30; Rad_Lower=7.3; Rad_Upper=30; a_HA=580; a_WG=246; b_HA=500; b_WG=121; c_HA=0; c_WG=187; d_feed=85; h_feed=15; h_lower=18; h_upper=40}
! Header version: 2018
! Port assignment regex: !\s*Touchstone port\s*([0-9]+)\s*=\s*(CST MWS port|CST DS port)\s*([0-9]+|Zmin|Zmax)\s*\(\"(.*)\"\)(\s*mode\s*([0-9]+))?.*
! Touchstone port assignment:
! Touchstone port 1 = CST MWS port 1 ("")
! Touchstone port 2 = CST MWS port 2 ("")
# GHz S DB R 50
0.5                    -0.148798        -122.728         -59.7135         42.6916         -59.7135         42.6916      -0.00681317         151.146
0.501                  -0.155695        -123.185         -59.5006         41.2001         -59.5006         41.2007       -0.0068848          151.08
0.502                  -0.162805        -123.643         -59.2878         39.6957          -59.288         39.6967      -0.00695691         151.015
0.503                  -0.170125        -124.101         -59.0754         38.1783         -59.0756         38.1798       -0.0070295          150.95
0.504                  -0.177656        -124.561         -58.8632         36.6479         -58.8635         36.6499      -0.00710254         150.884
0.505                  -0.185395        -125.021         -58.6514         35.1047         -58.6517         35.1071      -0.00717603         150.819
0.506                  -0.193341        -125.482           -58.44         33.5486         -58.4404         33.5514      -0.00724995         150.753
0.507                  -0.201494        -125.945         -58.2291         31.9796         -58.2295         31.9828      -0.00732429         150.687
0.508                  -0.209851        -126.408         -58.0187         30.3979         -58.0191         30.4015      -0.00739902         150.622
0.509                  -0.218412        -126.872         -57.8089         28.8035         -57.8094         28.8074      -0.00747412         150.556
0.51                   -0.227176        -127.338         -57.5998         27.1966         -57.6002         27.2008      -0.00754958          150.49
0.511                  -0.236141        -127.804         -57.3913         25.5772         -57.3918         25.5817      -0.00762538         150.424
0.512                  -0.245307        -128.272         -57.1836         23.9455         -57.1841         23.9503      -0.00770149         150.358
0.513                  -0.254673         -128.74         -56.9767         22.3017         -56.9773         22.3067       -0.0077779         150.292
0.514                  -0.264237         -129.21         -56.7707         20.6459         -56.7713         20.6511      -0.00785457         150.225
0.515                  -0.273999        -129.681         -56.5657         18.9782         -56.5662         18.9836      -0.00793148         150.159
0.516                  -0.283959        -130.153         -56.3616         17.2991         -56.3621         17.3046      -0.00800861         150.093
0.517                  -0.294114        -130.627         -56.1585         15.6085         -56.1591         15.6142      -0.00808593         150.026
0.518                  -0.304466        -131.101         -55.9566         13.9069         -55.9571         13.9127      -0.00816341          149.96
0.519                  -0.315013        -131.577         -55.7558         12.1945         -55.7563         12.2004      -0.00824103         149.893
0.52                   -0.325754        -132.055         -55.5562         10.4715         -55.5567         10.4775      -0.00831876         149.826
0.521                   -0.33669        -132.533         -55.3579         8.73835         -55.3583         8.74439      -0.00839658         149.759
0.522                   -0.34782        -133.013         -55.1608         6.99527         -55.1613         7.00135      -0.00847445         149.692
0.523                  -0.359145        -133.495         -54.9651         5.24264         -54.9656         5.24873      -0.00855235         149.625
0.524                  -0.370663        -133.978         -54.7708         3.48081         -54.7712          3.4869      -0.00863025         149.558
0.525                  -0.382375        -134.462         -54.5779         1.71018         -54.5783         1.71623      -0.00870814         149.491
0.526                  -0.394281        -134.948         -54.3865       -0.068884         -54.3869      -0.0628756      -0.00878597         149.424
0.527                  -0.406382        -135.435         -54.1966        -1.85596          -54.197        -1.85002      -0.00886375         149.357
0.528                  -0.418677        -135.925         -54.0082        -3.65064         -54.0086        -3.64477      -0.00894143         149.289
0.529                  -0.431168        -136.415         -53.8214        -5.45248         -53.8217        -5.44671      -0.00901902         149.222
0.53                   -0.443855        -136.908         -53.6362        -7.26105         -53.6365        -7.25539      -0.00909648         149.154
0.531                  -0.456739        -137.402         -53.4526        -9.07589         -53.4529        -9.07036      -0.00917381         149.086
0.532                   -0.46982        -137.897         -53.2706        -10.8966         -53.2709        -10.8912      -0.00925099         149.018
0.533                  -0.483101        -138.395         -53.0903        -12.7226         -53.0905        -12.7173      -0.00932803          148.95
0.534                  -0.496583        -138.895         -52.9116        -14.5535         -52.9118        -14.5484      -0.00940492         148.882
0.535                  -0.510266        -139.396         -52.7346        -16.3888         -52.7347        -16.3839      -0.00948167         148.814
0.536                  -0.524153        -139.899         -52.5592        -18.2281         -52.5594        -18.2234      -0.00955827         148.746
0.537                  -0.538245        -140.404         -52.3855        -20.0708         -52.3857        -20.0663      -0.00963474         148.678
0.538                  -0.552545        -140.912         -52.2135        -21.9166         -52.2136        -21.9123      -0.00971109         148.609
0.539                  -0.567055        -141.421         -52.0431        -23.7649         -52.0432        -23.7608      -0.00978736         148.541
0.54                   -0.581777        -141.932         -51.8744        -25.6153         -51.8744        -25.6114      -0.00986356         148.472
0.541                  -0.596714        -142.446         -51.7072        -27.4674         -51.7073        -27.4637      -0.00993973         148.403
0.542                   -0.61187        -142.962         -51.5417        -29.3207         -51.5418        -29.3172       -0.0100159         148.334
0.543                  -0.627247         -143.48         -51.3778        -31.1748         -51.3778        -31.1715       -0.0100921         148.265
0.544                  -0.642848            -144         -51.2154        -33.0292         -51.2154        -33.0261       -0.0101685         148.196
0.545                  -0.658678        -144.523         -51.0545        -34.8836         -51.0545        -34.8807        -0.010245         148.127
0.546                  -0.674741        -145.048         -50.8951        -36.7376         -50.8951         -36.735       -0.0103217         148.058
0.547                   -0.69104        -145.576         -50.7372        -38.5908         -50.7372        -38.5884       -0.0103987         147.988
0.548                  -0.707581        -146.106         -50.5807         -40.443         -50.5806        -40.4407        -0.010476         147.919
0.549                  -0.724369        -146.639         -50.4255        -42.2936         -50.4255        -42.2916       -0.0105538         147.849
0.55                   -0.741408        -147.174         -50.2717        -44.1425         -50.2716        -44.1407       -0.0106322         147.779
0.551                  -0.758703        -147.712         -50.1191        -45.9893         -50.1191        -45.9877       -0.0107111         147.709
0.552                  -0.776262        -148.253         -49.9678        -47.8338         -49.9678        -47.8324       -0.0107908         147.639
0.553                  -0.794091        -148.797         -49.8177        -49.6757         -49.8176        -49.6745       -0.0108712         147.569
0.554                  -0.812195        -149.343         -49.6687        -51.5149         -49.6686        -51.5138       -0.0109526         147.498
0.555                  -0.830582        -149.893         -49.5208         -53.351         -49.5207          -53.35        -0.011035         147.428
0.556                  -0.849259        -150.445         -49.3739        -55.1839         -49.3739        -55.1831       -0.0111185         147.357
0.557                  -0.868234            -151          -49.228        -57.0135          -49.228        -57.0128       -0.0112033         147.286
0.558                  -0.887516        -151.559         -49.0831        -58.8396          -49.083        -58.8391       -0.0112894         147.216
0.559                  -0.907112        -152.121         -48.9389         -60.662         -48.9389        -60.6617        -0.011377         147.144
0.56                   -0.927033        -152.685         -48.7957        -62.4808         -48.7956        -62.4806       -0.0114661         147.073
0.561                  -0.947287        -153.254         -48.6531        -64.2958         -48.6531        -64.2957       -0.0115569         147.002
0.562                  -0.967885        -153.825         -48.5113         -66.107         -48.5113         -66.107       -0.0116496         146.931
0.563                  -0.988837          -154.4         -48.3702        -67.9143         -48.3701        -67.9144       -0.0117442         146.859
0.564                   -1.01015        -154.978         -48.2296        -69.7178         -48.2296         -69.718       -0.0118408         146.787
0.565                   -1.03185         -155.56         -48.0896        -71.5173         -48.0896        -71.5176       -0.0119396         146.715
0.566                   -1.05393        -156.146         -47.9501        -73.3131           -47.95        -73.3134       -0.0120406         146.643
0.567                   -1.07642        -156.735          -47.811         -75.105          -47.811        -75.1054       -0.0121441         146.571
0.568                   -1.09932        -157.327         -47.6723        -76.8932         -47.6723        -76.8936       -0.0122501         146.499
0.569                   -1.12265        -157.924          -47.534        -78.6777          -47.534        -78.6782       -0.0123586         146.426
0.57                    -1.14642        -158.524          -47.396        -80.4586          -47.396        -80.4592       -0.0124699         146.354
0.571                   -1.17065        -159.128         -47.2583        -82.2361         -47.2583        -82.2367       -0.0125841         146.281
0.572                   -1.19536        -159.736         -47.1208        -84.0102         -47.1208        -84.0108       -0.0127011         146.208
0.573                   -1.22055        -160.348         -46.9834        -85.7811         -46.9835        -85.7817       -0.0128212         146.135
0.574                   -1.24626        -160.964         -46.8462        -87.5489         -46.8463        -87.5496       -0.0129445         146.062
0.575                   -1.27249        -161.584         -46.7091        -89.3138         -46.7092        -89.3145        -0.013071         145.988
0.576                   -1.29926        -162.208         -46.5721        -91.0759         -46.5721        -91.0766       -0.0132008         145.915
0.577                    -1.3266        -162.837         -46.4351        -92.8355         -46.4352        -92.8362        -0.013334         145.841
0.578                   -1.35452        -163.469         -46.2981        -94.5927         -46.2982        -94.5934       -0.0134708         145.767
0.579                   -1.38304        -164.106         -46.1611        -96.3477         -46.1611        -96.3484       -0.0136112         145.693
0.58                    -1.41219        -164.747          -46.024        -98.1007         -46.0241        -98.1013       -0.0137552         145.619
0.581                   -1.44199        -165.392         -45.8868        -99.8519         -45.8869        -99.8525       -0.0139031         145.544
0.582                   -1.47246        -166.042         -45.7496        -101.602         -45.7496        -101.602       -0.0140548          145.47
0.583                   -1.50362        -166.696         -45.6122         -103.35         -45.6122         -103.35       -0.0142104         145.395
0.584                    -1.5355        -167.355         -45.4746        -105.097         -45.4747        -105.098         -0.01437          145.32
0.585                   -1.56813        -168.017         -45.3369        -106.843         -45.3369        -106.844       -0.0145338         145.245
0.586                   -1.60153        -168.685          -45.199        -108.589          -45.199        -108.589       -0.0147017          145.17
0.587                   -1.63572        -169.356         -45.0609        -110.334         -45.0609        -110.334       -0.0148738         145.095
0.588                   -1.67074        -170.032         -44.9226        -112.079         -44.9226        -112.079       -0.0150503         145.019
0.589                   -1.70662        -170.713         -44.7841        -113.824         -44.7841        -113.824       -0.0152311         144.943
0.59                    -1.74338        -171.398         -44.6453        -115.569         -44.6454         -115.57       -0.0154164         144.867
0.591                   -1.78106        -172.087         -44.5063        -117.315         -44.5064        -117.315       -0.0156062         144.791
0.592                   -1.81968        -172.781         -44.3671        -119.062         -44.3672        -119.062       -0.0158006         144.715
0.593                   -1.85927        -173.479         -44.2277        -120.809         -44.2277         -120.81       -0.0159996         144.639
0.594                   -1.89988        -174.181          -44.088        -122.558          -44.088        -122.558       -0.0162032         144.562
0.595                   -1.94153        -174.888         -43.9481        -124.308         -43.9481        -124.308       -0.0164117         144.485
0.596                   -1.98426        -175.599          -43.808         -126.06          -43.808         -126.06       -0.0166249         144.408
0.597                    -2.0281        -176.314         -43.6676        -127.814         -43.6676        -127.814        -0.016843         144.331
0.598                   -2.07308        -177.033          -43.527         -129.57         -43.5271         -129.57        -0.017066         144.254
0.599                   -2.11925        -177.756         -43.3863        -131.328         -43.3863        -131.329       -0.0172939         144.176
0.6                     -2.16664        -178.483         -43.2453        -133.089         -43.2453        -133.089       -0.0175268         144.098
0.601                   -2.21528        -179.214         -43.1041        -134.853         -43.1042        -134.853       -0.0177648         144.021
0.602                   -2.26522        -179.948         -42.9628         -136.62         -42.9629         -136.62       -0.0180078         143.942
0.603                   -2.31648         179.314         -42.8214         -138.39         -42.8214         -138.39       -0.0182559         143.864
0.604                   -2.36912         178.573         -42.6798        -140.163         -42.6798        -140.163       -0.0185092         143.786
0.605                   -2.42316         177.828         -42.5381         -141.94         -42.5381        -141.939       -0.0187677         143.707
0.606                   -2.47864         177.081         -42.3963         -143.72         -42.3963         -143.72       -0.0190313         143.628
0.607                    -2.5356         176.331         -42.2545        -145.504         -42.2545        -145.504       -0.0193002         143.549
0.608                   -2.59408         175.578         -42.1126        -147.293         -42.1126        -147.293       -0.0195742         143.469
0.609                   -2.65412         174.822         -41.9707        -149.085         -41.9707        -149.085       -0.0198536          143.39
0.61                    -2.71574         174.065         -41.8288        -150.882         -41.8288        -150.882       -0.0201382          143.31
0.611                   -2.77899         173.306          -41.687        -152.683          -41.687        -152.683        -0.020428          143.23
0.612                   -2.84391         172.545         -41.5452        -154.489         -41.5452        -154.489       -0.0207231          143.15
0.613                   -2.91051         171.783         -41.4035        -156.299         -41.4035        -156.299       -0.0210234          143.07
0.614                   -2.97885          171.02          -41.262        -158.114          -41.262        -158.114        -0.021329         142.989
0.615                   -3.04894         170.256         -41.1206        -159.934         -41.1206        -159.934       -0.0216398         142.908
0.616                   -3.12082         169.492         -40.9794        -161.759         -40.9794        -161.759       -0.0219558         142.827
0.617                   -3.19452         168.728         -40.8384        -163.589         -40.8384        -163.589        -0.022277         142.746
0.618                   -3.27006         167.964         -40.6977        -165.423         -40.6977        -165.423       -0.0226033         142.665
0.619                   -3.34746         167.201         -40.5573        -167.263         -40.5573        -167.263       -0.0229347         142.583
0.62                    -3.42675          166.44         -40.4172        -169.107         -40.4172        -169.107       -0.0232712         142.501
0.621                   -3.50794          165.68         -40.2775        -170.957         -40.2774        -170.957       -0.0236128         142.419
0.622                   -3.59105         164.923         -40.1381        -172.811         -40.1381        -172.811       -0.0239593         142.336
0.623                   -3.67609         164.168         -39.9992        -174.671         -39.9991         -174.67       -0.0243108         142.254
0.624                   -3.76306         163.416         -39.8607        -176.535         -39.8607        -176.535       -0.0246671         142.171
0.625                   -3.85198         162.668         -39.7228        -178.404         -39.7227        -178.404       -0.0250283         142.088
0.626                   -3.94283         161.924         -39.5853         179.723         -39.5853         179.723       -0.0253942         142.004
0.627                   -4.03562         161.184         -39.4484         177.844         -39.4484         177.844       -0.0257648         141.921
0.628                   -4.13034          160.45         -39.3121         175.961         -39.3121         175.961       -0.0261401         141.837
0.629                   -4.22696         159.722         -39.1765         174.074         -39.1764         174.074       -0.0265199         141.753
0.63                    -4.32548             159         -39.0414         172.182         -39.0414         172.182       -0.0269043         141.668
0.631                   -4.42586         158.284         -38.9071         170.287          -38.907         170.287       -0.0272931         141.584
0.632                   -4.52808         157.577         -38.7734         168.387         -38.7733         168.387       -0.0276863         141.499
0.633                    -4.6321         156.877         -38.6404         166.483         -38.6404         166.483       -0.0280839         141.413
0.634                   -4.73788         156.185         -38.5082         164.576         -38.5082         164.576       -0.0284858         141.328
0.635                   -4.84536         155.503         -38.3768         162.665         -38.3768         162.665        -0.028892         141.242
0.636                    -4.9545          154.83         -38.2462         160.751         -38.2461         160.751       -0.0293024         141.156
0.637                   -5.06523         154.168         -38.1163         158.834         -38.1163         158.834        -0.029717          141.07
0.638                   -5.17748         153.515         -37.9873         156.915         -37.9872         156.914       -0.0301358         140.983
0.639                   -5.29118         152.875         -37.8591         154.992          -37.859         154.992       -0.0305588         140.896
0.64                    -5.40626         152.245         -37.7317         153.067         -37.7317         153.067        -0.030986         140.809
0.641                   -5.52261         151.628         -37.6052          151.14         -37.6052          151.14       -0.0314174         140.721
0.642                   -5.64015         151.022         -37.4796         149.211         -37.4796         149.211        -0.031853         140.633
0.643                   -5.75879          150.43         -37.3548          147.28         -37.3548          147.28       -0.0322929         140.545
0.644                   -5.87841          149.85         -37.2309         145.348         -37.2309         145.347       -0.0327371         140.456
0.645                   -5.99891         149.284         -37.1079         143.414         -37.1078         143.414       -0.0331858         140.368
0.646                   -6.12017         148.732         -36.9857         141.479         -36.9856         141.479        -0.033639         140.278
0.647                   -6.24208         148.193         -36.8643         139.544         -36.8643         139.544       -0.0340969         140.189
0.648                   -6.36451         147.667         -36.7439         137.608         -36.7438         137.608       -0.0345595         140.099
0.649                   -6.48733         147.156         -36.6242         135.672         -36.6242         135.672       -0.0350271         140.008
0.65                    -6.61042         146.658         -36.5054         133.735         -36.5054         133.735       -0.0354997         139.918
0.651                   -6.73365         146.174         -36.3874         131.799         -36.3874         131.799       -0.0359777         139.827
0.652                   -6.85689         145.704         -36.2701         129.863         -36.2701         129.863       -0.0364612         139.735
0.653                      -6.98         145.246         -36.1537         127.928         -36.1537         127.928       -0.0369504         139.643
0.654                   -7.10286         144.802          -36.038         125.993          -36.038         125.993       -0.0374457         139.551
0.655                   -7.22534         144.371          -35.923         124.059          -35.923         124.059       -0.0379472         139.459
0.656                   -7.34732         143.951         -35.8088         122.126         -35.8088         122.126       -0.0384554         139.366
0.657                   -7.46867         143.544         -35.6952         120.195         -35.6952         120.195       -0.0389705         139.272
0.658                   -7.58929         143.147         -35.5823         118.264         -35.5823         118.264       -0.0394929         139.178
0.659                   -7.70905          142.76           -35.47         116.336           -35.47         116.336        -0.040023         139.084
0.66                    -7.82787         142.383         -35.3583         114.409         -35.3583         114.409       -0.0405611         138.989
0.661                   -7.94564         142.015         -35.2472         112.483         -35.2472         112.483       -0.0411077         138.894
0.662                    -8.0623         141.655         -35.1366          110.56         -35.1366          110.56       -0.0416632         138.798
0.663                   -8.17775         141.301         -35.0265         108.638         -35.0265         108.638       -0.0422281         138.702
0.664                   -8.29196         140.954         -34.9169         106.719         -34.9169         106.719       -0.0428028         138.606
0.665                   -8.40485         140.611         -34.8077         104.801         -34.8077         104.801       -0.0433879         138.509
0.666                   -8.51642         140.272         -34.6989         102.886         -34.6989         102.886       -0.0439838         138.411
0.667                   -8.62662         139.936         -34.5904         100.972         -34.5904         100.972       -0.0445911         138.313
0.668                   -8.73546         139.601         -34.4823         99.0608         -34.4823         99.0609       -0.0452105         138.215
0.669                   -8.84295         139.266         -34.3745         97.1516         -34.3745         97.1516       -0.0458423         138.116
0.67                    -8.94912         138.931          -34.267         95.2443          -34.267         95.2443       -0.0464873         138.016
0.671                     -9.054         138.593         -34.1597         93.3391         -34.1597         93.3391       -0.0471461         137.916
0.672                   -9.15764         138.252         -34.0525         91.4358         -34.0525         91.4358       -0.0478192         137.815
0.673                   -9.26014         137.907         -33.9456         89.5344         -33.9456         89.5344       -0.0485074         137.714
0.674                   -9.36156         137.555         -33.8387         87.6347         -33.8387         87.6348       -0.0492113         137.613
0.675                   -9.46203         137.198          -33.732         85.7368          -33.732         85.7369       -0.0499315          137.51
0.676                   -9.56165         136.832         -33.6253         83.8405         -33.6253         83.8405       -0.0506689         137.407
0.677                   -9.66057         136.458         -33.5187         81.9457         -33.5187         81.9457        -0.051424         137.304
0.678                   -9.75892         136.073         -33.4121         80.0521         -33.4121         80.0522       -0.0521977           137.2
0.679                   -9.85689         135.678         -33.3055         78.1598         -33.3055         78.1598       -0.0529906         137.096
0.68                    -9.95463         135.272         -33.1989         76.2685         -33.1989         76.2685       -0.0538036          136.99
0.681                   -10.0523         134.853         -33.0922         74.3781         -33.0922         74.3781       -0.0546374         136.885
0.682                   -10.1502          134.42         -32.9854         72.4883         -32.9854         72.4884       -0.0554928         136.778
0.683                   -10.2485         133.974         -32.8786         70.5991         -32.8786         70.5991       -0.0563706         136.671
0.684                   -10.3474         133.514         -32.7716         68.7102         -32.7716         68.7102       -0.0572715         136.564
0.685                   -10.4471         133.039         -32.6645         66.8214         -32.6645         66.8214       -0.0581966         136.455
0.686                    -10.548         132.548         -32.5573         64.9326         -32.5573         64.9326       -0.0591464         136.346
0.687                   -10.6502         132.042         -32.4499         63.0434         -32.4499         63.0434        -0.060122         136.237
0.688                   -10.7539         131.521         -32.3424         61.1537         -32.3424         61.1537       -0.0611241         136.127
0.689                   -10.8596         130.983         -32.2347         59.2633         -32.2347         59.2633       -0.0621537         136.016
0.69                    -10.9675          130.43         -32.1269         57.3719         -32.1269         57.3719       -0.0632116         135.904
0.691                   -11.0777         129.861         -32.0189         55.4794         -32.0189         55.4794       -0.0642986         135.792
0.692                   -11.1908         129.277         -31.9108         53.5854         -31.9108         53.5854       -0.0654157         135.679
0.693                   -11.3069         128.677         -31.8025         51.6899         -31.8024         51.6898       -0.0665637         135.565
0.694                   -11.4264         128.063          -31.694         49.7925          -31.694         49.7924       -0.0677435         135.451
0.695                   -11.5496         127.434         -31.5854          47.893         -31.5854         47.8929        -0.068956         135.335
0.696                   -11.6768         126.792         -31.4767         45.9913         -31.4767         45.9912       -0.0702021         135.219
0.697                   -11.8083         126.137         -31.3678          44.087         -31.3678          44.087       -0.0714827         135.103