! TOUCHSTONE file generated by CST MICROWAVE STUDIO
! Date and time: Mon Sep 28 14:10:42 2020
! Project name: Scenario_1_Free_SPace.cst
! Parameters = {dx1=554.3; L_HA=400; MT=2.54; Rad_Dielectric=30; Rad_Lower=7.3; Rad_Upper=30; a_HA=580; a_WG=246; b_HA=500; b_WG=121; c_HA=0; c_WG=187; d_feed=85; h_feed=15; h_lower=18; h_upper=40}
! Header version: 2018
! Port assignment regex: !\s*Touchstone port\s*([0-9]+)\s*=\s*(CST MWS port|CST DS port)\s*([0-9]+|Zmin|Zmax)\s*\(\"(.*)\"\)(\s*mode\s*([0-9]+))?.*
! Touchstone port assignment:
! Touchstone port 1 = CST MWS port 1 ("")
! Touchstone port 2 = CST MWS port 2 ("")
# GHz S DB R 50
0.5                    -0.149195        -122.624         -61.2723         -37.234         -61.2723         -37.234      -0.00655232         151.119
0.501                  -0.152474         -123.09         -61.1228        -39.0458         -61.1217        -39.0535      -0.00661373         151.054
0.502                  -0.156075        -123.558          -60.971        -40.8574         -60.9687        -40.8722      -0.00667627         150.988
0.503                      -0.16        -124.027         -60.8169        -42.6686         -60.8135        -42.6902      -0.00673995         150.923
0.504                  -0.164249        -124.498         -60.6606        -44.4793         -60.6561        -44.5073      -0.00680476         150.857
0.505                  -0.168825        -124.971         -60.5022        -46.2895         -60.4966        -46.3235      -0.00687071         150.791
0.506                   -0.17373        -125.445         -60.3417        -48.0991         -60.3351        -48.1386      -0.00693781         150.725
0.507                  -0.178965        -125.921         -60.1791        -49.9081         -60.1716        -49.9527      -0.00700607         150.659
0.508                  -0.184531        -126.399         -60.0147        -51.7163         -60.0062        -51.7657      -0.00707549         150.593
0.509                   -0.19043        -126.878         -59.8483        -53.5238         -59.8389        -53.5776      -0.00714608         150.527
0.51                   -0.196664        -127.358         -59.6802        -55.3307           -59.67        -55.3886      -0.00721784         150.461
0.511                  -0.203234         -127.84         -59.5104        -57.1369         -59.4993        -57.1985      -0.00729078         150.395
0.512                  -0.210141        -128.324         -59.3389        -58.9426          -59.327        -59.0076       -0.0073649         150.329
0.513                  -0.217387        -128.809         -59.1658        -60.7478         -59.1533        -60.8159      -0.00744021         150.262
0.514                  -0.224974        -129.296         -58.9912        -62.5526          -58.978        -62.6235      -0.00751672         150.196
0.515                  -0.232902        -129.785         -58.8152        -64.3571         -58.8013        -64.4305      -0.00759443         150.129
0.516                  -0.241172        -130.274         -58.6377        -66.1614         -58.6234        -66.2372      -0.00767335         150.063
0.517                  -0.249787        -130.766          -58.459        -67.9657         -58.4441        -68.0435      -0.00775349         149.996
0.518                  -0.258747        -131.259         -58.2791        -69.7702         -58.2637        -69.8497      -0.00783485         149.929
0.519                  -0.268053        -131.753          -58.098        -71.5749         -58.0822        -71.6561      -0.00791744         149.862
0.52                   -0.277707        -132.249         -57.9158        -73.3802         -57.8996        -73.4627      -0.00800126         149.795
0.521                   -0.28771        -132.747         -57.7326        -75.1861          -57.716        -75.2697      -0.00808633         149.728
0.522                  -0.298063        -133.246         -57.5483         -76.993         -57.5316        -77.0775      -0.00817265         149.661
0.523                  -0.308766        -133.746         -57.3632        -78.8009         -57.3462        -78.8861      -0.00826022         149.594
0.524                  -0.319822        -134.248         -57.1773        -80.6101         -57.1601        -80.6959      -0.00834906         149.526
0.525                   -0.33123        -134.752         -56.9906        -82.4208         -56.9732         -82.507      -0.00843916         149.459
0.526                  -0.342993        -135.256         -56.8031        -84.2332         -56.7857        -84.3197      -0.00853055         149.391
0.527                   -0.35511        -135.763         -56.6151        -86.0477         -56.5975        -86.1343      -0.00862322         149.324
0.528                  -0.367583        -136.271         -56.4264        -87.8643         -56.4088        -87.9509      -0.00871717         149.256
0.529                  -0.380412         -136.78         -56.2372        -89.6834         -56.2197        -89.7698      -0.00881243         149.188
0.53                     -0.3936        -137.291         -56.0476        -91.5052         -56.0301        -91.5912        -0.008909          149.12
0.531                  -0.407145        -137.804         -55.8575        -93.3299         -55.8401        -93.4154      -0.00900687         149.052
0.532                   -0.42105        -138.317         -55.6671        -95.1577         -55.6499        -95.2427      -0.00910607         148.984
0.533                  -0.435316        -138.833         -55.4764         -96.989         -55.4593        -97.0732       -0.0092066         148.916
0.534                  -0.449942        -139.349         -55.2855        -98.8238         -55.2686        -98.9072      -0.00930846         148.848
0.535                  -0.464929        -139.868         -55.0944        -100.662         -55.0778        -100.745      -0.00941167          148.78
0.536                   -0.48028        -140.387         -54.9032        -102.505         -54.8869        -102.587      -0.00951623         148.711
0.537                  -0.495993        -140.909          -54.712        -104.352         -54.6959        -104.433      -0.00962215         148.643
0.538                  -0.512071        -141.431         -54.5208        -106.204          -54.505        -106.283      -0.00972943         148.574
0.539                  -0.528513        -141.956         -54.3296         -108.06         -54.3142        -108.138      -0.00983809         148.505
0.54                   -0.545321        -142.481         -54.1386        -109.921         -54.1236        -109.997      -0.00994813         148.436
0.541                  -0.562496        -143.008         -53.9477        -111.787         -53.9331        -111.862       -0.0100596         148.368
0.542                  -0.580037        -143.537         -53.7571        -113.659         -53.7429        -113.732       -0.0101724         148.298
0.543                  -0.597947        -144.067         -53.5667        -115.536          -53.553        -115.607       -0.0102866         148.229
0.544                  -0.616224        -144.599         -53.3767        -117.418         -53.3634        -117.488       -0.0104023          148.16
0.545                  -0.634872        -145.132         -53.1871        -119.306         -53.1743        -119.374       -0.0105193         148.091
0.546                  -0.653889        -145.666          -52.998          -121.2         -52.9857        -121.266       -0.0106378         148.021
0.547                  -0.673277        -146.203         -52.8094          -123.1         -52.7976        -123.164       -0.0107578         147.952
0.548                  -0.693037         -146.74         -52.6213        -125.007           -52.61        -125.068       -0.0108792         147.882
0.549                   -0.71317        -147.279         -52.4339        -126.919         -52.4231        -126.978        -0.011002         147.812
0.55                   -0.733676         -147.82         -52.2471        -128.837         -52.2369        -128.894       -0.0111263         147.742
0.551                  -0.754557        -148.363         -52.0611        -130.762         -52.0514        -130.817       -0.0112521         147.672
0.552                  -0.775813        -148.906         -51.8759        -132.694         -51.8667        -132.746       -0.0113793         147.602
0.553                  -0.797445        -149.452         -51.6914        -134.631         -51.6828        -134.681        -0.011508         147.532
0.554                  -0.819455        -149.999         -51.5079        -136.575         -51.4998        -136.622       -0.0116382         147.462
0.555                  -0.841842        -150.547         -51.3253        -138.526         -51.3177         -138.57         -0.01177         147.391
0.556                   -0.86461        -151.098         -51.1437        -140.482         -51.1366        -140.524       -0.0119032          147.32
0.557                  -0.887757         -151.65         -50.9631        -142.445         -50.9566        -142.485       -0.0120379          147.25
0.558                  -0.911287        -152.203         -50.7835        -144.415         -50.7776        -144.451       -0.0121742         147.179
0.559                    -0.9352        -152.758         -50.6051         -146.39         -50.5997        -146.424       -0.0123119         147.108
0.56                   -0.959497        -153.315         -50.4279        -148.372         -50.4229        -148.403       -0.0124512         147.037
0.561                   -0.98418        -153.874         -50.2518         -150.36         -50.2474        -150.388       -0.0125921         146.966
0.562                   -1.00925        -154.434          -50.077        -152.354         -50.0731        -152.379       -0.0127345         146.894
0.563                   -1.03471        -154.996         -49.9035        -154.353            -49.9        -154.375       -0.0128784         146.823
0.564                   -1.06056        -155.559         -49.7313        -156.358         -49.7283        -156.377       -0.0130239         146.751
0.565                    -1.0868        -156.125         -49.5605        -158.368         -49.5578        -158.385        -0.013171          146.68
0.566                   -1.11344        -156.692          -49.391        -160.384         -49.3888        -160.397       -0.0133196         146.608
0.567                   -1.14047        -157.261         -49.2229        -162.404         -49.2211        -162.415       -0.0134698         146.536
0.568                    -1.1679        -157.832         -49.0563        -164.429         -49.0549        -164.437       -0.0136216         146.464
0.569                   -1.19574        -158.405         -48.8911        -166.459         -48.8901        -166.465        -0.013775         146.392
0.57                    -1.22397         -158.98         -48.7275        -168.494         -48.7268        -168.496       -0.0139299         146.319
0.571                   -1.25261        -159.556         -48.5653        -170.532         -48.5649        -170.531       -0.0140864         146.247
0.572                   -1.28166        -160.135         -48.4046        -172.574         -48.4046        -172.571       -0.0142445         146.174
0.573                   -1.31112        -160.716         -48.2455        -174.619         -48.2457        -174.614       -0.0144042         146.101
0.574                     -1.341        -161.298         -48.0879        -176.668         -48.0884         -176.66       -0.0145655         146.028
0.575                   -1.37129        -161.883         -47.9319         -178.72         -47.9326        -178.709       -0.0147284         145.955
0.576                     -1.402         -162.47         -47.7774         179.226         -47.7783         179.239       -0.0148928         145.882
0.577                   -1.43314        -163.058         -47.6244         177.169         -47.6255         177.184       -0.0150589         145.809
0.578                    -1.4647        -163.649          -47.473          175.11         -47.4743         175.128       -0.0152265         145.735
0.579                    -1.4967        -164.243         -47.3232         173.049         -47.3246         173.069       -0.0153957         145.662
0.58                    -1.52913        -164.838         -47.1748         170.987         -47.1764         171.009       -0.0155665         145.588
0.581                   -1.56201        -165.436          -47.028         168.924         -47.0297         168.948       -0.0157388         145.514
0.582                   -1.59533        -166.036         -46.8827          166.86         -46.8845         166.886       -0.0159128          145.44
0.583                    -1.6291        -166.638         -46.7389         164.796         -46.7408         164.823       -0.0160882         145.366
0.584                   -1.66332        -167.243         -46.5966         162.731         -46.5985         162.759       -0.0162652         145.291
0.585                   -1.69801         -167.85         -46.4557         160.666         -46.4576         160.696       -0.0164437         145.217
0.586                   -1.73317         -168.46         -46.3162         158.601         -46.3181         158.633       -0.0166238         145.142
0.587                    -1.7688        -169.072          -46.178         156.537           -46.18          156.57       -0.0168054         145.067
0.588                   -1.80491        -169.687         -46.0413         154.474         -46.0432         154.508       -0.0169884         144.992
0.589                    -1.8415        -170.305         -45.9058         152.412         -45.9077         152.446       -0.0171729         144.917
0.59                    -1.87859        -170.925         -45.7717         150.351         -45.7735         150.386       -0.0173589         144.841
0.591                   -1.91619        -171.548         -45.6387         148.292         -45.6405         148.327       -0.0175464         144.766
0.592                   -1.95429        -172.174          -45.507         146.235         -45.5088          146.27       -0.0177352          144.69
0.593                   -1.99292        -172.803         -45.3765         144.179         -45.3781         144.215       -0.0179254         144.614
0.594                   -2.03207        -173.434          -45.247         142.126         -45.2486         142.161        -0.018117         144.538
0.595                   -2.07176        -174.069         -45.1187         140.074         -45.1202          140.11         -0.01831         144.462
0.596                   -2.11201        -174.706         -44.9913         138.026         -44.9927         138.061       -0.0185042         144.385
0.597                   -2.15281        -175.347          -44.865         135.979         -44.8663         136.015       -0.0186998         144.309
0.598                   -2.19418        -175.991         -44.7395         133.936         -44.7408         133.971       -0.0188966         144.232
0.599                   -2.23613        -176.638          -44.615         131.895         -44.6161         131.929       -0.0190946         144.155
0.6                     -2.27868        -177.289         -44.4913         129.857         -44.4923         129.891       -0.0192939         144.078
0.601                   -2.32183        -177.942         -44.3684         127.822         -44.3693         127.855       -0.0194943             144
0.602                   -2.36561          -178.6         -44.2462          125.79          -44.247         125.822       -0.0196959         143.923
0.603                   -2.41003         -179.26         -44.1247         123.762         -44.1254         123.792       -0.0198986         143.845
0.604                   -2.45509        -179.925         -44.0039         121.736         -44.0045         121.765       -0.0201024         143.767
0.605                   -2.50083         179.407         -43.8836         119.713         -43.8841         119.741       -0.0203073         143.689
0.606                   -2.54725         178.736         -43.7639         117.693         -43.7643          117.72       -0.0205133         143.611
0.607                   -2.59437          178.06         -43.6447         115.677          -43.645         115.702       -0.0207203         143.532
0.608                   -2.64222         177.381         -43.5259         113.663         -43.5262         113.687       -0.0209285         143.453
0.609                   -2.69081         176.697         -43.4076         111.653         -43.4077         111.674       -0.0211377         143.374
0.61                    -2.74016          176.01         -43.2896         109.645         -43.2897         109.665       -0.0213481         143.295
0.611                    -2.7903         175.318         -43.1719          107.64          -43.172         107.658       -0.0215596         143.215
0.612                   -2.84124         174.623         -43.0545         105.637         -43.0545         105.654       -0.0217724         143.136
0.613                   -2.89302         173.923         -42.9373         103.638         -42.9373         103.653       -0.0219865         143.056
0.614                   -2.94565         173.218         -42.8203         101.641         -42.8203         101.654       -0.0222021         142.976
0.615                   -2.99917          172.51         -42.7035         99.6458         -42.7035         99.6568       -0.0224192         142.895
0.616                   -3.05361         171.797         -42.5869         97.6532         -42.5868         97.6624       -0.0226381         142.814
0.617                   -3.10898         171.079         -42.4703         95.6627         -42.4702           95.67       -0.0228589         142.734
0.618                   -3.16533         170.356         -42.3537         93.6741         -42.3536         93.6795       -0.0230818         142.652
0.619                   -3.22269         169.629         -42.2372         91.6873         -42.2371         91.6908       -0.0233073         142.571
0.62                    -3.28108         168.897         -42.1207         89.7021         -42.1207         89.7037       -0.0235355         142.489
0.621                   -3.34056         168.161         -42.0042         87.7182         -42.0042          87.718       -0.0237669         142.407
0.622                   -3.40114         167.419         -41.8876         85.7356         -41.8876         85.7336       -0.0240018         142.325
0.623                   -3.46289         166.672         -41.7709         83.7541          -41.771         83.7503       -0.0242407         142.242
0.624                   -3.52583          165.92         -41.6542         81.7734         -41.6543         81.7679       -0.0244841          142.16
0.625                      -3.59         165.164         -41.5374         79.7933         -41.5375         79.7862       -0.0247325         142.076
0.626                   -3.65547         164.401         -41.4204         77.8137         -41.4206         77.8049       -0.0249865         141.993
0.627                   -3.72227         163.634         -41.3033         75.8343         -41.3036          75.824       -0.0252467         141.909
0.628                   -3.79045         162.862          -41.186          73.855         -41.1864         73.8432       -0.0255136         141.825
0.629                   -3.86007         162.084         -41.0686         71.8754         -41.0691         71.8623       -0.0257879         141.741
0.63                    -3.93118         161.301          -40.951         69.8955         -40.9516          69.881       -0.0260701         141.656
0.631                   -4.00385         160.512         -40.8332          67.915          -40.834         67.8993       -0.0263609         141.571
0.632                   -4.07812         159.719         -40.7153         65.9337         -40.7162         65.9168       -0.0266607         141.486
0.633                   -4.15407          158.92         -40.5972         63.9514         -40.5982         63.9335       -0.0269701         141.401
0.634                   -4.23176         158.115          -40.479         61.9679           -40.48          61.949       -0.0272895         141.315
0.635                   -4.31127         157.305         -40.3606         59.9829         -40.3617         59.9632       -0.0276192         141.229
0.636                   -4.39265          156.49          -40.242         57.9964         -40.2433         57.9759       -0.0279596         141.142
0.637                     -4.476          155.67         -40.1233          56.008         -40.1247         55.9869       -0.0283109         141.056
0.638                   -4.56139         154.845         -40.0044         54.0177         -40.0059         53.9961       -0.0286731         140.968
0.639                    -4.6489         154.015         -39.8855         52.0252          -39.887         52.0031       -0.0290464         140.881
0.64                    -4.73862          153.18         -39.7664         50.0304         -39.7681          50.008       -0.0294308         140.793
0.641                   -4.83063          152.34         -39.6472         48.0331          -39.649         48.0104        -0.029826         140.705
0.642                   -4.92504         151.495          -39.528         46.0331         -39.5299         46.0103       -0.0302319         140.617
0.643                   -5.02194         150.646         -39.4087         44.0303         -39.4107         44.0075       -0.0306484         140.529
0.644                   -5.12142         149.793         -39.2894         42.0246         -39.2915         42.0019       -0.0310751          140.44
0.645                   -5.22361         148.936         -39.1701         40.0158         -39.1722         39.9933       -0.0315117          140.35
0.646                   -5.32859         148.076         -39.0508         38.0039          -39.053         37.9817       -0.0319579         140.261
0.647                   -5.43649         147.212         -38.9316         35.9887         -38.9339         35.9668       -0.0324135         140.171
0.648                   -5.54743         146.345         -38.8125         33.9701         -38.8148         33.9487       -0.0328779         140.081
0.649                   -5.66151         145.477         -38.6934         31.9481         -38.6958         31.9272       -0.0333511          139.99
0.65                    -5.77887         144.606         -38.5746         29.9226          -38.577         29.9023       -0.0338325         139.899
0.651                   -5.89963         143.734         -38.4559         27.8935         -38.4583          27.874        -0.034322         139.808
0.652                   -6.02392         142.861         -38.3374         25.8609         -38.3398         25.8421       -0.0348193         139.717
0.653                   -6.15187         141.988         -38.2192         23.8247         -38.2216         23.8067       -0.0353242         139.625
0.654                   -6.28362         141.116         -38.1012         21.7849         -38.1036         21.7678       -0.0358364         139.532
0.655                   -6.41931         140.246         -37.9836         19.7415          -37.986         19.7254       -0.0363559          139.44
0.656                   -6.55907         139.378         -37.8663         17.6946         -37.8687         17.6795       -0.0368825         139.347
0.657                   -6.70304         138.513         -37.7495         15.6443         -37.7517         15.6302       -0.0374161         139.253
0.658                   -6.85137         137.653          -37.633         13.5905         -37.6352         13.5775       -0.0379567          139.16
0.659                    -7.0042           136.8          -37.517         11.5335         -37.5191         11.5215       -0.0385043         139.065
0.66                    -7.16167         135.953         -37.4015         9.47324         -37.4036         9.46229       -0.0390589         138.971
0.661                    -7.3239         135.115         -37.2866         7.40992         -37.2885         7.40004       -0.0396206         138.876
0.662                   -7.49104         134.287         -37.1722         5.34366          -37.174         5.33485       -0.0401893         138.781
0.663                   -7.66321         133.472         -37.0584         3.27464           -37.06         3.26689       -0.0407653         138.685
0.664                   -7.84055          132.67         -36.9452         1.20302         -36.9467          1.1963       -0.0413486         138.588
0.665                   -8.02315         131.884         -36.8327       -0.870996         -36.8341       -0.876711       -0.0419394         138.492
0.666                   -8.21112         131.116         -36.7209        -2.94721         -36.7221        -2.95195       -0.0425378         138.395
0.667                   -8.40456         130.368         -36.6098        -5.02538         -36.6108         -5.0292       -0.0431442         138.297
0.668                   -8.60353         129.644         -36.4994        -7.10529         -36.5002        -7.10823       -0.0437585         138.199
0.669                    -8.8081         128.945         -36.3898        -9.18668         -36.3904         -9.1888       -0.0443812           138.1
0.67                     -9.0183         128.274          -36.281        -11.2693         -36.2813        -11.2706       -0.0450123         138.001
0.671                   -9.23413         127.636         -36.1729        -13.3528         -36.1731        -13.3535       -0.0456523         137.902
0.672                   -9.45558         127.032         -36.0656         -15.437         -36.0656        -15.4371       -0.0463012         137.802
0.673                   -9.68258         126.466         -35.9592        -17.5216         -35.9589        -17.5211       -0.0469596         137.701
0.674                   -9.91504         125.943         -35.8536        -19.6063         -35.8531        -19.6053       -0.0476275           137.6
0.675                   -10.1528         125.466         -35.7488        -21.6907         -35.7481        -21.6893       -0.0483054         137.499
0.676                   -10.3957         125.038         -35.6449        -23.7745         -35.6439        -23.7729       -0.0489935         137.396
0.677                   -10.6434         124.665         -35.5417        -25.8575         -35.5405        -25.8557       -0.0496923         137.294
0.678                   -10.8957          124.35         -35.4394        -27.9394          -35.438        -27.9374        -0.050402         137.191
0.679                   -11.1521         124.098         -35.3379        -30.0197         -35.3363        -30.0177        -0.051123         137.087
0.68                    -11.4121         123.914         -35.2372        -32.0983         -35.2354        -32.0963       -0.0518557         136.982
0.681                   -11.6751         123.801         -35.1373        -34.1748         -35.1352        -34.1729       -0.0526006         136.877
0.682                   -11.9405         123.765         -35.0381        -36.2489         -35.0359        -36.2471       -0.0533579         136.772
0.683                   -12.2075         123.809         -34.9397        -38.3202         -34.9373        -38.3188       -0.0541282         136.666
0.684                   -12.4751         123.938          -34.842        -40.3887         -34.8394        -40.3876       -0.0549118         136.559
0.685                   -12.7423         124.155          -34.745        -42.4538         -34.7422        -42.4532       -0.0557093         136.451
0.686                   -13.0079         124.463         -34.6487        -44.5155         -34.6457        -44.5153        -0.056521         136.343
0.687                   -13.2707         124.865         -34.5529        -46.5734         -34.5499        -46.5737       -0.0573476         136.234
0.688                   -13.5293         125.361         -34.4578        -48.6273         -34.4546        -48.6282       -0.0581894         136.125
0.689                   -13.7821         125.953         -34.3632         -50.677         -34.3599        -50.6786       -0.0590472         136.015
0.69                    -14.0277         126.639         -34.2691        -52.7223         -34.2657        -52.7245       -0.0599212         135.904
0.691                   -14.2642         127.417         -34.1755         -54.763          -34.172        -54.7659       -0.0608123         135.792
0.692                   -14.4902         128.283         -34.0823        -56.7989         -34.0787        -56.8025       -0.0617209          135.68
0.693                    -14.704         129.231         -33.9895        -58.8299         -33.9859        -58.8342       -0.0626478         135.567
0.694                    -14.904         130.254          -33.897        -60.8559         -33.8933        -60.8609       -0.0635934         135.453
0.695                   -15.0888         131.343         -33.8048        -62.8767         -33.8011        -62.8824       -0.0645586         135.339
0.696                   -15.2572         132.486         -33.7128        -64.8922          -33.709        -64.8987        -0.065544         135.223
0.697                   -15.4082         133.673         -33.6209        -66.9024         -33.6172        -66.9097       -0.0665504         135.107