! TOUCHSTONE file generated by CST MICROWAVE STUDIO
! Date and time: Mon Sep 28 14:12:09 2020
! Project name: Scenario_1_Free_SPace.cst
! Parameters = {dx1=588.9; L_HA=400; MT=2.54; Rad_Dielectric=30; Rad_Lower=7.3; Rad_Upper=30; a_HA=580; a_WG=246; b_HA=500; b_WG=121; c_HA=0; c_WG=187; d_feed=85; h_feed=15; h_lower=18; h_upper=40}
! Header version: 2018
! Port assignment regex: !\s*Touchstone port\s*([0-9]+)\s*=\s*(CST MWS port|CST DS port)\s*([0-9]+|Zmin|Zmax)\s*\(\"(.*)\"\)(\s*mode\s*([0-9]+))?.*
! Touchstone port assignment:
! Touchstone port 1 = CST MWS port 1 ("")
! Touchstone port 2 = CST MWS port 2 ("")
# GHz S DB R 50
0.5                    -0.146652        -122.618         -61.5886        -56.8961         -61.5886        -56.8961      -0.00651854         151.116
0.501                  -0.151747        -123.065         -61.4107        -58.5647         -61.4104        -58.5641      -0.00659051          151.05
0.502                  -0.157049        -123.513         -61.2317        -60.2399          -61.231        -60.2388      -0.00666352         150.985
0.503                  -0.162562        -123.964         -61.0516         -61.922         -61.0506        -61.9203      -0.00673757         150.919
0.504                  -0.168289        -124.416         -60.8704        -63.6108         -60.8691        -63.6087      -0.00681266         150.853
0.505                  -0.174236        -124.871         -60.6882        -65.3067         -60.6866        -65.3041      -0.00688878         150.788
0.506                  -0.180405        -125.328          -60.505        -67.0096         -60.5032        -67.0066      -0.00696594         150.722
0.507                  -0.186801        -125.787         -60.3208        -68.7198         -60.3188        -68.7163      -0.00704413         150.656
0.508                  -0.193429        -126.248         -60.1357        -70.4373         -60.1335        -70.4335      -0.00712335          150.59
0.509                  -0.200293        -126.711         -59.9498        -72.1622         -59.9473         -72.158      -0.00720361         150.524
0.51                   -0.207396        -127.177          -59.763        -73.8947         -59.7604        -73.8902       -0.0072849         150.458
0.511                  -0.214745        -127.644         -59.5755        -75.6348         -59.5726        -75.6301      -0.00736722         150.391
0.512                  -0.222342        -128.114         -59.3871        -77.3828         -59.3841        -77.3779      -0.00745057         150.325
0.513                  -0.230193        -128.585         -59.1981        -79.1386          -59.195        -79.1336      -0.00753496         150.259
0.514                  -0.238302        -129.059         -59.0085        -80.9026         -59.0052        -80.8973      -0.00762037         150.192
0.515                  -0.246674        -129.535         -58.8182        -82.6746         -58.8148        -82.6693      -0.00770681         150.126
0.516                  -0.255313        -130.013         -58.6274         -84.455         -58.6239        -84.4496      -0.00779428         150.059
0.517                  -0.264225        -130.493         -58.4361        -86.2437         -58.4325        -86.2383      -0.00788277         149.992
0.518                  -0.273413        -130.976         -58.2443        -88.0409         -58.2406        -88.0355      -0.00797229         149.925
0.519                  -0.282884         -131.46         -58.0521        -89.8468         -58.0483        -89.8414      -0.00806283         149.859
0.52                   -0.292641        -131.947         -57.8595        -91.6613         -57.8557         -91.656       -0.0081544         149.792
0.521                   -0.30269        -132.435         -57.6666        -93.4846         -57.6628        -93.4794      -0.00824699         149.725
0.522                  -0.313035        -132.926         -57.4735        -95.3169         -57.4696        -95.3118       -0.0083406         149.657
0.523                  -0.323681        -133.419         -57.2802        -97.1581         -57.2763        -97.1531      -0.00843523          149.59
0.524                  -0.334634        -133.914         -57.0867        -99.0084         -57.0828        -99.0036      -0.00853088         149.523
0.525                  -0.345897        -134.412         -56.8932        -100.868         -56.8893        -100.863      -0.00862755         149.455
0.526                  -0.357477        -134.911         -56.6996        -102.736         -56.6957        -102.732      -0.00872524         149.388
0.527                  -0.369377        -135.413         -56.5061        -104.614         -56.5022         -104.61      -0.00882393          149.32
0.528                  -0.381604        -135.916         -56.3126        -106.501         -56.3088        -106.497      -0.00892365         149.253
0.529                   -0.39416        -136.422         -56.1193        -108.398         -56.1155        -108.394      -0.00902437         149.185
0.53                   -0.407052         -136.93         -55.9262        -110.304         -55.9224          -110.3      -0.00912611         149.117
0.531                  -0.420284        -137.439         -55.7334        -112.219         -55.7296        -112.216      -0.00922885         149.049
0.532                  -0.433861        -137.951         -55.5408        -114.143         -55.5372         -114.14       -0.0093326         148.981
0.533                  -0.447787        -138.465         -55.3487        -116.077         -55.3451        -116.074      -0.00943736         148.913
0.534                  -0.462067        -138.981          -55.157         -118.02         -55.1535        -118.018      -0.00954312         148.845
0.535                  -0.476705        -139.499         -54.9658        -119.972         -54.9624         -119.97      -0.00964988         148.777
0.536                  -0.491706        -140.019         -54.7752        -121.933         -54.7719        -121.932      -0.00975764         148.708
0.537                  -0.507073        -140.541         -54.5852        -123.904          -54.582        -123.903       -0.0098664          148.64
0.538                  -0.522811        -141.065         -54.3959        -125.883         -54.3928        -125.883      -0.00997615         148.571
0.539                  -0.538924        -141.591         -54.2074        -127.872         -54.2043        -127.871       -0.0100869         148.503
0.54                   -0.555415        -142.119         -54.0196        -129.869         -54.0167        -129.869       -0.0101986         148.434
0.541                  -0.572288        -142.649         -53.8328        -131.874         -53.8299        -131.875       -0.0103114         148.365
0.542                  -0.589546         -143.18         -53.6468        -133.888         -53.6441        -133.889       -0.0104251         148.296
0.543                  -0.607192        -143.714         -53.4618        -135.911         -53.4592        -135.911       -0.0105398         148.227
0.544                  -0.625229        -144.249         -53.2778        -137.941         -53.2753        -137.942       -0.0106554         148.158
0.545                   -0.64366        -144.786         -53.0949        -139.979         -53.0926        -139.981       -0.0107721         148.088
0.546                  -0.662488        -145.325         -52.9132        -142.025         -52.9109        -142.026       -0.0108897         148.019
0.547                  -0.681713        -145.866         -52.7326        -144.078         -52.7305         -144.08       -0.0110083         147.949
0.548                  -0.701339        -146.409         -52.5533        -146.138         -52.5513         -146.14       -0.0111279          147.88
0.549                  -0.721366        -146.953         -52.3752        -148.205         -52.3733        -148.207       -0.0112484          147.81
0.55                   -0.741796        -147.499         -52.1984        -150.278         -52.1967        -150.281       -0.0113699          147.74
0.551                   -0.76263        -148.047          -52.023        -152.358         -52.0214        -152.361       -0.0114924          147.67
0.552                  -0.783868        -148.596          -51.849        -154.443         -51.8475        -154.446       -0.0116158           147.6
0.553                  -0.805511        -149.147         -51.6764        -156.534         -51.6751        -156.537       -0.0117402          147.53
0.554                  -0.827557          -149.7         -51.5053         -158.63          -51.504        -158.633       -0.0118655          147.46
0.555                  -0.850008        -150.254         -51.3356        -160.731         -51.3345        -160.734       -0.0119918         147.389
0.556                  -0.872861         -150.81         -51.1674        -162.837         -51.1665         -162.84        -0.012119         147.319
0.557                  -0.896115        -151.367         -51.0008        -164.946         -50.9999        -164.949       -0.0122472         147.248
0.558                   -0.91977        -151.926         -50.8357        -167.059          -50.835        -167.062       -0.0123763         147.177
0.559                  -0.943822        -152.487         -50.6721        -169.175         -50.6715        -169.178       -0.0125063         147.106
0.56                   -0.968269        -153.049         -50.5102        -171.294         -50.5097        -171.297       -0.0126373         147.035
0.561                   -0.99311        -153.613         -50.3498        -173.416         -50.3494        -173.419       -0.0127692         146.964
0.562                   -1.01834        -154.178         -50.1909         -175.54         -50.1906        -175.543        -0.012902         146.893
0.563                   -1.04396        -154.745         -50.0337        -177.666         -50.0335        -177.668       -0.0130358         146.822
0.564                   -1.06996        -155.313          -49.878        -179.792         -49.8779        -179.795       -0.0131705          146.75
0.565                   -1.09633        -155.883         -49.7238          178.08         -49.7238         178.077       -0.0133061         146.678
0.566                   -1.12309        -156.454         -49.5713         175.951         -49.5713         175.949       -0.0134426         146.607
0.567                   -1.15021        -157.027         -49.4202         173.823         -49.4204          173.82         -0.01358         146.535
0.568                    -1.1777        -157.601         -49.2707         171.694         -49.2709         171.692       -0.0137184         146.463
0.569                   -1.20555        -158.178         -49.1226         169.566         -49.1229         169.564       -0.0138576         146.391
0.57                    -1.23376        -158.756          -48.976         167.439         -48.9764         167.437       -0.0139978         146.318
0.571                   -1.26232        -159.335         -48.8309         165.313         -48.8313         165.312        -0.014139         146.246
0.572                   -1.29122        -159.916         -48.6872         163.189         -48.6877         163.187        -0.014281         146.173
0.573                   -1.32048        -160.499         -48.5448         161.066         -48.5454         161.065        -0.014424           146.1
0.574                   -1.35007        -161.084         -48.4038         158.946         -48.4044         158.945       -0.0145679         146.027
0.575                   -1.37999        -161.671         -48.2641         156.828         -48.2648         156.827       -0.0147127         145.954
0.576                   -1.41025         -162.26         -48.1257         154.712         -48.1263         154.711       -0.0148585         145.881
0.577                   -1.44084        -162.851         -47.9885         152.599         -47.9892         152.599       -0.0150052         145.808
0.578                   -1.47176        -163.444         -47.8524         150.489         -47.8532         150.489       -0.0151529         145.734
0.579                     -1.503        -164.039         -47.7175         148.383         -47.7183         148.383       -0.0153016         145.661
0.58                    -1.53457        -164.637         -47.5837          146.28         -47.5845          146.28       -0.0154512         145.587
0.581                   -1.56647        -165.237          -47.451          144.18         -47.4517          144.18       -0.0156018         145.513
0.582                   -1.59868        -165.839         -47.3192         142.084           -47.32         142.085       -0.0157535         145.439
0.583                   -1.63123        -166.444         -47.1884         139.992         -47.1892         139.993       -0.0159062         145.365
0.584                   -1.66411        -167.052         -47.0585         137.904         -47.0593         137.905         -0.01606          145.29
0.585                   -1.69733        -167.663         -46.9294          135.82         -46.9302         135.821       -0.0162148         145.216
0.586                   -1.73088        -168.277         -46.8011          133.74         -46.8019         133.741       -0.0163708         145.141
0.587                   -1.76479        -168.894         -46.6736         131.664         -46.6744         131.665       -0.0165279         145.066
0.588                   -1.79905        -169.514         -46.5468         129.592         -46.5476         129.593       -0.0166863         144.991
0.589                   -1.83368        -170.138         -46.4207         127.525         -46.4214         127.526       -0.0168458         144.916
0.59                    -1.86869        -170.765         -46.2951         125.461         -46.2959         125.462       -0.0170066          144.84
0.591                   -1.90409        -171.396         -46.1702         123.402         -46.1709         123.403       -0.0171688         144.764
0.592                    -1.9399        -172.031         -46.0457         121.347         -46.0464         121.348       -0.0173324         144.689
0.593                   -1.97614         -172.67         -45.9217         119.295         -45.9224         119.297       -0.0174974         144.613
0.594                   -2.01282        -173.314         -45.7982         117.248         -45.7989         117.249       -0.0176639         144.536
0.595                   -2.04997        -173.961          -45.675         115.205         -45.6757         115.206        -0.017832          144.46
0.596                    -2.0876        -174.613         -45.5522         113.165         -45.5529         113.166       -0.0180018         144.383
0.597                   -2.12575        -175.269         -45.4298         111.129         -45.4303          111.13       -0.0181734         144.307
0.598                   -2.16444        -175.931         -45.3075         109.096         -45.3081         109.098       -0.0183468          144.23
0.599                    -2.2037        -176.597         -45.1856         107.067         -45.1861         107.069       -0.0185222         144.153
0.6                     -2.24356        -177.268         -45.0638         105.042         -45.0643         105.043       -0.0186997         144.075
0.601                   -2.28405        -177.944         -44.9422         103.019         -44.9426          103.02       -0.0188793         143.998
0.602                   -2.32521        -178.626         -44.8207         100.999         -44.8211         101.001       -0.0190613          143.92
0.603                   -2.36707        -179.313         -44.6993         98.9825         -44.6997         98.9838       -0.0192458         143.842
0.604                   -2.40967         179.995          -44.578         96.9683         -44.5784         96.9695       -0.0194329         143.764
0.605                   -2.45305         179.297         -44.4568         94.9566         -44.4571         94.9577       -0.0196227         143.685
0.606                   -2.49726         178.594         -44.3356         92.9471         -44.3359         92.9481       -0.0198154         143.607
0.607                   -2.54233         177.885         -44.2144         90.9397         -44.2147         90.9406       -0.0200113         143.528
0.608                   -2.58831          177.17         -44.0932         88.9342         -44.0935          88.935       -0.0202104         143.449
0.609                   -2.63525         176.449          -43.972         86.9303         -43.9722         86.9311        -0.020413         143.369
0.61                     -2.6832         175.722         -43.8507          84.928         -43.8509         84.9286       -0.0206192          143.29
0.611                   -2.73219          174.99         -43.7293          82.927         -43.7295         82.9275       -0.0208292          143.21
0.612                    -2.7823         174.252         -43.6079          80.927         -43.6081         80.9274       -0.0210433          143.13
0.613                   -2.83356         173.507         -43.4865          78.928         -43.4866         78.9282       -0.0212617          143.05
0.614                   -2.88603         172.757         -43.3649         76.9296          -43.365         76.9297       -0.0214845         142.969
0.615                   -2.93977         172.001         -43.2432         74.9317         -43.2433         74.9317        -0.021712         142.888
0.616                   -2.99482          171.24         -43.1214          72.934         -43.1215          72.934       -0.0219444         142.807
0.617                   -3.05125         170.472         -42.9995         70.9365         -42.9996         70.9363       -0.0221819         142.726
0.618                   -3.10912         169.699         -42.8776         68.9388         -42.8776         68.9385       -0.0224248         142.645
0.619                   -3.16847         168.921         -42.7555         66.9409         -42.7555         66.9404       -0.0226732         142.563
0.62                    -3.22938         168.137         -42.6333         64.9424         -42.6333         64.9418       -0.0229273         142.481
0.621                   -3.29189         167.348          -42.511         62.9432          -42.511         62.9425       -0.0231873         142.399
0.622                   -3.35607         166.554         -42.3886         60.9432         -42.3886         60.9424       -0.0234536         142.316
0.623                   -3.42198         165.754         -42.2661         58.9421         -42.2661         58.9412       -0.0237261         142.233
0.624                   -3.48967          164.95         -42.1436         56.9398         -42.1435         56.9387       -0.0240051          142.15
0.625                   -3.55922         164.141         -42.0209         54.9361         -42.0209          54.935       -0.0242908         142.067
0.626                   -3.63068         163.328         -41.8983         52.9309         -41.8982         52.9296       -0.0245834         141.984
0.627                   -3.70411         162.511         -41.7756         50.9239         -41.7755         50.9226       -0.0248828           141.9
0.628                   -3.77958          161.69         -41.6528         48.9152         -41.6528         48.9138       -0.0251894         141.816
0.629                   -3.85714         160.866         -41.5301         46.9044           -41.53          46.903       -0.0255032         141.731
0.63                    -3.93686         160.038         -41.4073         44.8916         -41.4072         44.8901       -0.0258242         141.647
0.631                    -4.0188         159.208         -41.2846         42.8766         -41.2845          42.875       -0.0261527         141.562
0.632                   -4.10302         158.374         -41.1619         40.8592         -41.1618         40.8575       -0.0264885         141.476
0.633                   -4.18957         157.539         -41.0393         38.8394         -41.0392         38.8377       -0.0268319         141.391
0.634                   -4.27853         156.702         -40.9167         36.8172         -40.9167         36.8154       -0.0271828         141.305
0.635                   -4.36995         155.863         -40.7943         34.7923         -40.7942         34.7905       -0.0275412         141.219
0.636                   -4.46388         155.024          -40.672         32.7648         -40.6719         32.7629       -0.0279072         141.133
0.637                   -4.56039         154.184         -40.5498         30.7345         -40.5498         30.7327       -0.0282808         141.046
0.638                   -4.65954         153.345         -40.4278         28.7016         -40.4278         28.6997       -0.0286619         140.959
0.639                   -4.76137         152.505         -40.3061         26.6658          -40.306         26.6639       -0.0290506         140.872
0.64                    -4.86594         151.668         -40.1845         24.6272         -40.1845         24.6254       -0.0294468         140.784
0.641                    -4.9733         150.831         -40.0632         22.5858         -40.0631          22.584       -0.0298504         140.696
0.642                   -5.08351         149.998         -39.9421         20.5416         -39.9421         20.5398       -0.0302615         140.608
0.643                   -5.19661         149.167         -39.8214         18.4946         -39.8213         18.4928         -0.03068         140.519
0.644                   -5.31264          148.34         -39.7009         16.4449         -39.7009         16.4431       -0.0311059          140.43
0.645                   -5.43166         147.518         -39.5808         14.3923         -39.5808         14.3906       -0.0315391         140.341
0.646                   -5.55369           146.7         -39.4611         12.3371         -39.4611         12.3354       -0.0319796         140.252
0.647                   -5.67878         145.889         -39.3417         10.2793         -39.3417         10.2777       -0.0324273         140.162
0.648                   -5.80697         145.084         -39.2228         8.21892         -39.2228         8.21735       -0.0328824         140.072
0.649                   -5.93827         144.288         -39.1043         6.15607         -39.1043         6.15456       -0.0333446         139.981
0.65                    -6.07271         143.499         -38.9862         4.09084         -38.9863         4.08941        -0.033814          139.89
0.651                   -6.21032          142.72         -38.8687         2.02334         -38.8687         2.02199       -0.0342906         139.799
0.652                   -6.35111         141.952         -38.7516      -0.0463082         -38.7516      -0.0475874       -0.0347745         139.707
0.653                   -6.49509         141.195          -38.635        -2.11799          -38.635        -2.11919       -0.0352656         139.615
0.654                   -6.64225          140.45         -38.5189        -4.19157          -38.519        -4.19268        -0.035764         139.523
0.655                    -6.7926         139.719         -38.4034         -6.2669         -38.4035        -6.26792       -0.0362696          139.43
0.656                   -6.94613         139.003         -38.2885        -8.34383         -38.2885        -8.34476       -0.0367827         139.337
0.657                    -7.1028         138.303         -38.1741        -10.4222         -38.1741         -10.423       -0.0373032         139.244
0.658                   -7.26259         137.619         -38.0603        -12.5019         -38.0603        -12.5026       -0.0378312          139.15
0.659                   -7.42546         136.954          -37.947        -14.5826         -37.9471        -14.5833       -0.0383669         139.055
0.66                    -7.59136         136.308         -37.8344        -16.6643         -37.8344        -16.6649       -0.0389103         138.961
0.661                   -7.76023         135.683         -37.7223        -18.7467         -37.7224        -18.7472       -0.0394615         138.865
0.662                   -7.93199         135.079         -37.6109        -20.8297         -37.6109        -20.8301       -0.0400208          138.77
0.663                   -8.10655           134.5            -37.5        -22.9131         -37.5001        -22.9134       -0.0405883         138.674
0.664                   -8.28381         133.945         -37.3898        -24.9967         -37.3898        -24.9969       -0.0411641         138.577
0.665                   -8.46364         133.415         -37.2801        -27.0802         -37.2801        -27.0804       -0.0417485          138.48
0.666                   -8.64592         132.914         -37.1711        -29.1636         -37.1711        -29.1637       -0.0423417         138.383
0.667                   -8.83048         132.441         -37.0626        -31.2466         -37.0626        -31.2466       -0.0429438         138.285
0.668                   -9.01716         131.998         -36.9547         -33.329         -36.9547        -33.3289       -0.0435552         138.187
0.669                   -9.20576         131.587         -36.8473        -35.4107         -36.8473        -35.4105        -0.044176         138.088
0.67                    -9.39606         131.209         -36.7405        -37.4914         -36.7405        -37.4912       -0.0448067         137.988
0.671                   -9.58783         130.865         -36.6343         -39.571         -36.6342        -39.5707       -0.0454474         137.889
0.672                   -9.78081         130.556         -36.5285        -41.6494         -36.5285         -41.649       -0.0460984         137.788
0.673                   -9.97471         130.283         -36.4233        -43.7262         -36.4232        -43.7258       -0.0467602         137.687
0.674                   -10.1692         130.048         -36.3185        -45.8015         -36.3185        -45.8011        -0.047433         137.586
0.675                    -10.364         129.852         -36.2142         -47.875         -36.2142        -47.8745       -0.0481173         137.484
0.676                   -10.5588         129.694         -36.1103        -49.9466         -36.1103        -49.9461       -0.0488133         137.382
0.677                   -10.7531         129.576         -36.0069        -52.0162         -36.0068        -52.0156       -0.0495215         137.278
0.678                   -10.9466         129.499         -35.9038        -54.0836         -35.9037         -54.083       -0.0502424         137.175
0.679                   -11.1388         129.462         -35.8011        -56.1487          -35.801        -56.1481       -0.0509763         137.071
0.68                    -11.3293         129.466         -35.6987        -58.2114         -35.6986        -58.2109       -0.0517237         136.966
0.681                   -11.5176         129.509         -35.5966        -60.2717         -35.5965        -60.2711       -0.0524851          136.86
0.682                   -11.7034         129.593         -35.4947        -62.3294         -35.4946        -62.3288        -0.053261         136.754
0.683                   -11.8861         129.716         -35.3931        -64.3845          -35.393        -64.3839        -0.054052         136.648
0.684                   -12.0652         129.876         -35.2917        -66.4369         -35.2916        -66.4364       -0.0548585          136.54
0.685                   -12.2404         130.072         -35.1905        -68.4866         -35.1904        -68.4861       -0.0556811         136.433
0.686                    -12.411         130.303         -35.0893        -70.5336         -35.0892         -70.533       -0.0565205         136.324
0.687                   -12.5768         130.567         -34.9883        -72.5778         -34.9882        -72.5773       -0.0573771         136.215
0.688                   -12.7373          130.86         -34.8873        -74.6192         -34.8872        -74.6187       -0.0582517         136.105
0.689                   -12.8921          131.18         -34.7864        -76.6579         -34.7863        -76.6574       -0.0591449         135.994
0.69                    -13.0409         131.523         -34.6854        -78.6938         -34.6853        -78.6934       -0.0600573         135.883
0.691                   -13.1833         131.888         -34.5844        -80.7271         -34.5843        -80.7267       -0.0609896         135.771
0.692                   -13.3193         132.269         -34.4834        -82.7577         -34.4832        -82.7573       -0.0619425         135.658
0.693                   -13.4485         132.662         -34.3822        -84.7858          -34.382        -84.7854       -0.0629166         135.544
0.694                   -13.5708         133.065         -34.2808        -86.8113         -34.2807         -86.811       -0.0639127          135.43
0.695                   -13.6864         133.473         -34.1793        -88.8345         -34.1791        -88.8342       -0.0649314         135.315
0.696                    -13.795         133.881         -34.0775        -90.8554         -34.0774        -90.8551       -0.0659732         135.199
0.697                   -13.8969         134.285         -33.9755        -92.8741         -33.9754        -92.8739       -0.0670388         135.082