! TOUCHSTONE file generated by CST MICROWAVE STUDIO
! Date and time: Mon Sep 28 14:12:34 2020
! Project name: Scenario_1_Free_SPace.cst
! Parameters = {dx1=640.9; L_HA=400; MT=2.54; Rad_Dielectric=30; Rad_Lower=7.3; Rad_Upper=30; a_HA=580; a_WG=246; b_HA=500; b_WG=121; c_HA=0; c_WG=187; d_feed=85; h_feed=15; h_lower=18; h_upper=40}
! Header version: 2018
! Port assignment regex: !\s*Touchstone port\s*([0-9]+)\s*=\s*(CST MWS port|CST DS port)\s*([0-9]+|Zmin|Zmax)\s*\(\"(.*)\"\)(\s*mode\s*([0-9]+))?.*
! Touchstone port assignment:
! Touchstone port 1 = CST MWS port 1 ("")
! Touchstone port 2 = CST MWS port 2 ("")
# GHz S DB R 50
0.5                    -0.143652        -122.415         -62.0857          -86.42         -62.0857          -86.42      -0.00649272         151.143
0.501                  -0.148062        -122.861         -61.8926        -88.1797         -61.8926        -88.1797      -0.00656316         151.077
0.502                   -0.15275        -123.308         -61.6986        -89.9463         -61.6986        -89.9463      -0.00663448         151.012
0.503                  -0.157719        -123.758         -61.5036          -91.72         -61.5036          -91.72      -0.00670668         150.947
0.504                  -0.162969         -124.21         -61.3078        -93.5011         -61.3078        -93.5011      -0.00677975         150.881
0.505                  -0.168503        -124.663         -61.1112        -95.2897         -61.1112        -95.2897       -0.0068537         150.816
0.506                  -0.174322        -125.119         -60.9138        -97.0861         -60.9139         -97.086      -0.00692851          150.75
0.507                  -0.180428        -125.576         -60.7158        -98.8904         -60.7158        -98.8904       -0.0070042         150.684
0.508                  -0.186822        -126.035         -60.5172        -100.703         -60.5172        -100.703      -0.00708074         150.618
0.509                  -0.193507        -126.496         -60.3181        -102.524         -60.3181        -102.524      -0.00715815         150.553
0.51                   -0.200484        -126.959         -60.1184        -104.354         -60.1184        -104.354      -0.00723641         150.487
0.511                  -0.207755        -127.424         -59.9184        -106.192         -59.9184        -106.192      -0.00731553         150.421
0.512                   -0.21532         -127.89          -59.718         -108.04         -59.7181         -108.04       -0.0073955         150.355
0.513                  -0.223183        -128.359         -59.5174        -109.896         -59.5174        -109.896      -0.00747632         150.288
0.514                  -0.231344        -128.829         -59.3166        -111.762         -59.3166        -111.762      -0.00755798         150.222
0.515                  -0.239804        -129.301         -59.1157        -113.638         -59.1157        -113.638      -0.00764048         150.156
0.516                  -0.248566        -129.775         -58.9147        -115.523         -58.9147        -115.523      -0.00772381         150.089
0.517                   -0.25763        -130.251         -58.7137        -117.419         -58.7138        -117.419      -0.00780798         150.023
0.518                  -0.266998        -130.729         -58.5129        -119.324         -58.5129        -119.324      -0.00789298         149.956
0.519                  -0.276672        -131.209         -58.3122        -121.239         -58.3122        -121.239       -0.0079788          149.89
0.52                   -0.286653         -131.69         -58.1118        -123.165         -58.1118        -123.165      -0.00806544         149.823
0.521                  -0.296941        -132.173         -57.9117        -125.101         -57.9117        -125.101       -0.0081529         149.756
0.522                  -0.307539        -132.658          -57.712        -127.047          -57.712        -127.047      -0.00824117         149.689
0.523                  -0.318448        -133.145         -57.5127        -129.003         -57.5127        -129.003      -0.00833024         149.622
0.524                  -0.329669        -133.634         -57.3141         -130.97         -57.3141         -130.97      -0.00842012         149.555
0.525                  -0.341203        -134.125          -57.116        -132.948          -57.116        -132.948      -0.00851078         149.488
0.526                  -0.353051        -134.617         -56.9187        -134.935         -56.9187        -134.935      -0.00860224         149.421
0.527                  -0.365215        -135.112         -56.7222        -136.933         -56.7222        -136.933      -0.00869449         149.354
0.528                  -0.377695        -135.608         -56.5265        -138.942         -56.5265        -138.942      -0.00878751         149.286
0.529                  -0.390493        -136.106         -56.3317         -140.96         -56.3317         -140.96       -0.0088813         149.219
0.53                    -0.40361        -136.605          -56.138        -142.989         -56.1379        -142.989      -0.00897586         149.151
0.531                  -0.417047        -137.107         -55.9453        -145.027         -55.9453        -145.027      -0.00907118         149.084
0.532                  -0.430805        -137.611         -55.7538        -147.075         -55.7538        -147.075      -0.00916724         149.016
0.533                  -0.444884        -138.116         -55.5635        -149.133         -55.5634        -149.133      -0.00926405         148.948
0.534                  -0.459287        -138.623         -55.3744          -151.2         -55.3744          -151.2      -0.00936159          148.88
0.535                  -0.474014        -139.132         -55.1868        -153.276         -55.1867        -153.276      -0.00945986         148.812
0.536                  -0.489065        -139.643         -55.0005        -155.361         -55.0005        -155.361      -0.00955885         148.744
0.537                  -0.504442        -140.156         -54.8157        -157.454         -54.8157        -157.454      -0.00965855         148.676
0.538                  -0.520146         -140.67         -54.6324        -159.555         -54.6324        -159.555      -0.00975894         148.607
0.539                  -0.536178        -141.187         -54.4507        -161.664         -54.4507        -161.664      -0.00986002         148.539
0.54                   -0.552539        -141.705         -54.2707        -163.781         -54.2706        -163.781      -0.00996178          148.47
0.541                  -0.569229        -142.225         -54.0923        -165.904         -54.0922        -165.904       -0.0100642         148.402
0.542                  -0.586249        -142.747         -53.9156        -168.034         -53.9155        -168.034       -0.0101673         148.333
0.543                  -0.603602        -143.271         -53.7406         -170.17         -53.7406        -170.171        -0.010271         148.264
0.544                  -0.621286        -143.797         -53.5674        -172.312         -53.5674        -172.312       -0.0103754         148.195
0.545                  -0.639304        -144.325         -53.3961         -174.46          -53.396         -174.46       -0.0104803         148.126
0.546                  -0.657656        -144.855         -53.2265        -176.612         -53.2265        -176.612       -0.0105859         148.057
0.547                  -0.676343        -145.387         -53.0588        -178.768         -53.0588        -178.768        -0.010692         147.988
0.548                  -0.695367         -145.92         -52.8929         179.072         -52.8929         179.072       -0.0107988         147.919
0.549                  -0.714728        -146.456         -52.7289         176.909         -52.7289         176.909       -0.0109061         147.849
0.55                   -0.734427        -146.994         -52.5668         174.743         -52.5668         174.742       -0.0110139          147.78
0.551                  -0.754466        -147.533         -52.4065         172.574         -52.4065         172.574       -0.0111222          147.71
0.552                  -0.774845        -148.075         -52.2481         170.404          -52.248         170.403       -0.0112311          147.64
0.553                  -0.795567        -148.619         -52.0914         168.232         -52.0914         168.232       -0.0113404          147.57
0.554                  -0.816631        -149.164         -51.9367         166.059         -51.9366         166.059       -0.0114502           147.5
0.555                   -0.83804        -149.712         -51.7836         163.886         -51.7836         163.886       -0.0115605          147.43
0.556                  -0.859795        -150.262         -51.6324         161.713         -51.6324         161.713       -0.0116712          147.36
0.557                  -0.881897        -150.814         -51.4829         159.541         -51.4829          159.54       -0.0117823          147.29
0.558                  -0.904349        -151.368         -51.3351         157.369          -51.335         157.369       -0.0118939         147.219
0.559                  -0.927151        -151.925         -51.1889         155.199         -51.1889         155.199       -0.0120058         147.149
0.56                   -0.950306        -152.483         -51.0443          153.03         -51.0443          153.03        -0.012118         147.078
0.561                  -0.973815        -153.044         -50.9013         150.864         -50.9013         150.864       -0.0122306         147.007
0.562                  -0.997681        -153.607         -50.7598           148.7         -50.7598           148.7       -0.0123435         146.936
0.563                   -1.02191        -154.173         -50.6197         146.538         -50.6197         146.538       -0.0124568         146.865
0.564                   -1.04649         -154.74         -50.4811          144.38         -50.4811          144.38       -0.0125703         146.794
0.565                   -1.07144        -155.311         -50.3438         142.225         -50.3438         142.225       -0.0126841         146.722
0.566                   -1.09676        -155.883         -50.2077         140.074         -50.2077         140.074       -0.0127982         146.651
0.567                   -1.12245        -156.458         -50.0729         137.926         -50.0729         137.926       -0.0129126         146.579
0.568                   -1.14851        -157.036         -49.9392         135.783         -49.9392         135.783       -0.0130272         146.507
0.569                   -1.17495        -157.616         -49.8066         133.644         -49.8066         133.644       -0.0131421         146.436
0.57                    -1.20177        -158.198          -49.675         131.509          -49.675         131.509       -0.0132573         146.364
0.571                   -1.22897        -158.784         -49.5444         129.378         -49.5444         129.378       -0.0133728         146.291
0.572                   -1.25656        -159.372         -49.4147         127.252         -49.4147         127.252       -0.0134885         146.219
0.573                   -1.28455        -159.962         -49.2858          125.13         -49.2858          125.13       -0.0136046         146.147
0.574                   -1.31294        -160.556         -49.1577         123.014         -49.1577         123.014        -0.013721         146.074
0.575                   -1.34173        -161.152         -49.0303         120.901         -49.0303         120.901       -0.0138378         146.001
0.576                   -1.37093        -161.751         -48.9035         118.794         -48.9035         118.794       -0.0139551         145.928
0.577                   -1.40055        -162.354         -48.7773         116.691         -48.7773         116.691       -0.0140729         145.855
0.578                    -1.4306        -162.959         -48.6516         114.592         -48.6516         114.592       -0.0141913         145.782
0.579                   -1.46108        -163.567         -48.5264         112.498         -48.5264         112.499       -0.0143104         145.709
0.58                      -1.492        -164.179         -48.4015         110.409         -48.4015         110.409       -0.0144303         145.635
0.581                   -1.52337        -164.794          -48.277         108.324          -48.277         108.324       -0.0145511         145.561
0.582                    -1.5552        -165.412         -48.1528         106.243         -48.1528         106.243        -0.014673         145.487
0.583                    -1.5875        -166.033         -48.0289         104.166         -48.0289         104.166        -0.014796         145.413
0.584                   -1.62029        -166.658         -47.9052         102.093         -47.9052         102.093       -0.0149205         145.339
0.585                   -1.65356        -167.286         -47.7816         100.023         -47.7816         100.023       -0.0150466         145.265
0.586                   -1.68734        -167.919         -47.6581         97.9573         -47.6581         97.9574       -0.0151745          145.19
0.587                   -1.72164        -168.554         -47.5347         95.8948         -47.5347         95.8949       -0.0153045         145.115
0.588                   -1.75648        -169.194         -47.4113         93.8354         -47.4113         93.8355       -0.0154368          145.04
0.589                   -1.79187        -169.837         -47.2879         91.7789         -47.2879          91.779       -0.0155716         144.965
0.59                    -1.82783        -170.485         -47.1645         89.7251         -47.1645         89.7253       -0.0157094          144.89
0.591                   -1.86437        -171.136          -47.041         87.6739          -47.041          87.674       -0.0158503         144.814
0.592                   -1.90152        -171.792         -46.9174         85.6248         -46.9174          85.625       -0.0159948         144.738
0.593                   -1.93929        -172.452         -46.7938         83.5778         -46.7938          83.578        -0.016143         144.663
0.594                   -1.97772        -173.116         -46.6699         81.5326         -46.6699         81.5328       -0.0162955         144.586
0.595                   -2.01681        -173.784          -46.546          79.489          -46.546         79.4891       -0.0164523          144.51
0.596                   -2.05661        -174.457         -46.4218         77.4466         -46.4218         77.4468        -0.016614         144.434
0.597                   -2.09713        -175.135         -46.2975         75.4053         -46.2975         75.4055       -0.0167808         144.357
0.598                   -2.13841        -175.817          -46.173         73.3649          -46.173         73.3651       -0.0169529          144.28
0.599                   -2.18047        -176.504         -46.0482          71.325         -46.0482         71.3252       -0.0171307         144.203
0.6                     -2.22335        -177.195         -45.9233         69.2855         -45.9233         69.2857       -0.0173143         144.126
0.601                   -2.26708        -177.892         -45.7982         67.2461         -45.7982         67.2463       -0.0175041         144.048
0.602                    -2.3117        -178.593         -45.6728         65.2066         -45.6728         65.2068       -0.0177002          143.97
0.603                   -2.35725        -179.299         -45.5473         63.1668         -45.5473          63.167       -0.0179026         143.893
0.604                   -2.40377         179.989         -45.4215         61.1265         -45.4215         61.1266       -0.0181116         143.814
0.605                    -2.4513         179.273         -45.2956         59.0853         -45.2956         59.0855       -0.0183272         143.736
0.606                   -2.49989         178.552         -45.1694         57.0433         -45.1694         57.0434       -0.0185493         143.658
0.607                   -2.54958         177.825         -45.0431              55         -45.0431         55.0002       -0.0187781         143.579
0.608                   -2.60042         177.094         -44.9166         52.9555         -44.9166         52.9556       -0.0190134           143.5
0.609                   -2.65247         176.357           -44.79         50.9094           -44.79         50.9095       -0.0192551         143.421
0.61                    -2.70578         175.615         -44.6632         48.8616         -44.6632         48.8618       -0.0195031         143.342
0.611                    -2.7604         174.869         -44.5363          46.812         -44.5363         46.8122       -0.0197574         143.262
0.612                    -2.8164         174.117         -44.4093         44.7605         -44.4093         44.7606       -0.0200177         143.182
0.613                   -2.87383         173.361         -44.2822         42.7068         -44.2822         42.7069       -0.0202838         143.103
0.614                   -2.93275           172.6         -44.1551         40.6508         -44.1551         40.6509       -0.0205556         143.022
0.615                   -2.99323         171.835         -44.0279         38.5926         -44.0279         38.5927       -0.0208329         142.942
0.616                   -3.05533         171.065         -43.9008         36.5319         -43.9008         36.5319       -0.0211154         142.862
0.617                   -3.11911         170.291         -43.7736         34.4686         -43.7736         34.4687        -0.021403         142.781
0.618                   -3.18465         169.514         -43.6465         32.4028         -43.6465         32.4028       -0.0216955           142.7
0.619                     -3.252         168.733         -43.5194         30.3343         -43.5194         30.3343       -0.0219928         142.619
0.62                    -3.32123         167.948         -43.3925         28.2631         -43.3925         28.2631       -0.0222946         142.537
0.621                    -3.3924         167.161         -43.2656         26.1891         -43.2656         26.1892       -0.0226007         142.456
0.622                   -3.46558         166.372          -43.139         24.1125          -43.139         24.1125       -0.0229112         142.374
0.623                   -3.54083          165.58         -43.0124          22.033         -43.0124         22.0331       -0.0232257         142.292
0.624                    -3.6182         164.787         -42.8861         19.9508         -42.8861         19.9509       -0.0235443         142.209
0.625                   -3.69775         163.993           -42.76          17.866           -42.76          17.866       -0.0238669         142.127
0.626                   -3.77953         163.199         -42.6342         15.7784         -42.6342         15.7784       -0.0241933         142.044
0.627                   -3.86357         162.405         -42.5086         13.6882         -42.5086         13.6882       -0.0245236         141.961
0.628                   -3.94993         161.612         -42.3833         11.5954         -42.3833         11.5954       -0.0248577         141.878
0.629                   -4.03862          160.82         -42.2584         9.50011         -42.2584         9.50011       -0.0251957         141.794
0.63                    -4.12968         160.031         -42.1338         7.40241         -42.1338          7.4024       -0.0255374          141.71
0.631                   -4.22312         159.245         -42.0096         5.30238         -42.0096         5.30237        -0.025883         141.626
0.632                   -4.31895         158.463         -41.8857         3.20014         -41.8857         3.20013       -0.0262324         141.542
0.633                   -4.41716         157.686         -41.7623          1.0958         -41.7623         1.09578       -0.0265858         141.457
0.634                   -4.51774         156.914         -41.6393        -1.01053         -41.6393        -1.01055       -0.0269431         141.372
0.635                   -4.62066         156.149         -41.5168         -3.1187         -41.5168        -3.11873       -0.0273046         141.287
0.636                   -4.72589          155.39         -41.3947        -5.22859         -41.3947        -5.22862       -0.0276702         141.202
0.637                   -4.83339          154.64          -41.273        -7.34004         -41.2731        -7.34007       -0.0280401         141.116
0.638                   -4.94309         153.898         -41.1519         -9.4529         -41.1519        -9.45294       -0.0284143          141.03
0.639                   -5.05492         153.166         -41.0312         -11.567         -41.0312        -11.5671       -0.0287931         140.944
0.64                    -5.16881         152.444         -40.9111        -13.6823         -40.9111        -13.6823       -0.0291765         140.857
0.641                   -5.28466         151.733         -40.7914        -15.7984         -40.7914        -15.7985       -0.0295648          140.77
0.642                   -5.40238         151.034         -40.6723        -17.9154         -40.6723        -17.9155       -0.0299579         140.683
0.643                   -5.52185         150.346         -40.5536         -20.033         -40.5536         -20.033       -0.0303562         140.595
0.644                   -5.64296         149.671         -40.4355         -22.151         -40.4355        -22.1511       -0.0307598         140.507
0.645                   -5.76559         149.009         -40.3178        -24.2694         -40.3178        -24.2694       -0.0311688         140.419
0.646                   -5.88961          148.36         -40.2007        -26.3879         -40.2007        -26.3879       -0.0315835          140.33
0.647                   -6.01489         147.725          -40.084        -28.5063          -40.084        -28.5064        -0.032004         140.241
0.648                    -6.1413         147.103         -39.9679        -30.6247         -39.9679        -30.6247       -0.0324306         140.152
0.649                    -6.2687         146.495         -39.8522        -32.7427         -39.8522        -32.7427       -0.0328634         140.062
0.65                    -6.39696           145.9         -39.7369        -34.8603         -39.7369        -34.8603       -0.0333027         139.972
0.651                   -6.52595         145.319         -39.6221        -36.9773         -39.6221        -36.9773       -0.0337487         139.882
0.652                   -6.65556         144.752         -39.5078        -39.0936         -39.5078        -39.0936       -0.0342016         139.791
0.653                   -6.78565         144.197         -39.3938        -41.2091         -39.3938        -41.2091       -0.0346617           139.7
0.654                   -6.91613         143.655         -39.2803        -43.3237         -39.2803        -43.3237       -0.0351292         139.609
0.655                   -7.04687         143.125         -39.1671        -45.4373         -39.1671        -45.4373       -0.0356044         139.517
0.656                   -7.17781         142.607         -39.0543        -47.5498         -39.0543        -47.5498       -0.0360876         139.424
0.657                   -7.30884           142.1         -38.9418        -49.6611         -38.9418        -49.6612       -0.0365789         139.332
0.658                   -7.43989         141.604         -38.8296        -51.7713         -38.8296        -51.7713       -0.0370788         139.239
0.659                   -7.57092         141.118         -38.7177        -53.8801         -38.7177        -53.8801       -0.0375874         139.145
0.66                    -7.70186         140.641         -38.6061        -55.9877         -38.6061        -55.9877       -0.0381051         139.051
0.661                   -7.83268         140.173         -38.4947        -58.0939         -38.4947        -58.0939       -0.0386323         138.957
0.662                   -7.96336         139.712         -38.3835        -60.1988         -38.3835        -60.1988       -0.0391691         138.862
0.663                   -8.09389         139.259         -38.2725        -62.3023         -38.2725        -62.3023        -0.039716         138.767
0.664                   -8.22427         138.813         -38.1617        -64.4045         -38.1617        -64.4045       -0.0402733         138.672
0.665                    -8.3545         138.372          -38.051        -66.5054          -38.051        -66.5054       -0.0408413         138.576
0.666                   -8.48461         137.937         -37.9405         -68.605         -37.9405         -68.605       -0.0414204         138.479
0.667                   -8.61464         137.507           -37.83        -70.7034           -37.83        -70.7034        -0.042011         138.382
0.668                   -8.74462          137.08         -37.7196        -72.8007         -37.7196        -72.8007       -0.0426135         138.285
0.669                   -8.87461         136.657         -37.6092        -74.8969         -37.6092        -74.8969       -0.0432282         138.187
0.67                    -9.00467         136.237         -37.4988        -76.9921         -37.4988        -76.9921       -0.0438556         138.089
0.671                   -9.13488          135.82         -37.3885        -79.0864         -37.3885        -79.0864       -0.0444961          137.99
0.672                    -9.2653         135.404         -37.2781        -81.1799         -37.2781        -81.1799       -0.0451502          137.89
0.673                   -9.39602         134.991         -37.1677        -83.2728         -37.1677        -83.2728       -0.0458182          137.79
0.674                   -9.52713         134.579         -37.0572        -85.3652         -37.0572        -85.3652       -0.0465007          137.69
0.675                   -9.65873         134.168         -36.9466        -87.4571         -36.9466        -87.4571       -0.0471981         137.589
0.676                   -9.79092         133.758         -36.8359        -89.5489         -36.8359        -89.5489       -0.0479109         137.488
0.677                    -9.9238         133.349         -36.7251        -91.6405         -36.7251        -91.6405       -0.0486397         137.386
0.678                   -10.0575          132.94         -36.6142        -93.7322         -36.6142        -93.7322       -0.0493849         137.283
0.679                   -10.1921         132.533         -36.5031        -95.8242         -36.5031        -95.8242       -0.0501472          137.18
0.68                    -10.3277         132.126         -36.3919        -97.9167         -36.3919        -97.9167        -0.050927         137.077
0.681                   -10.4645          131.72         -36.2805         -100.01         -36.2805         -100.01       -0.0517249         136.972
0.682                   -10.6025         131.314          -36.169        -102.104          -36.169        -102.104       -0.0525415         136.868
0.683                    -10.742          130.91         -36.0572        -104.198         -36.0572        -104.198       -0.0533774         136.762
0.684                    -10.883         130.508         -35.9454        -106.294         -35.9454        -106.294       -0.0542333         136.657
0.685                   -11.0256         130.107         -35.8333        -108.392         -35.8333        -108.392       -0.0551098          136.55
0.686                     -11.17         129.708         -35.7211        -110.491          -35.721        -110.491       -0.0560074         136.443
0.687                   -11.3163         129.312         -35.6086        -112.592         -35.6086        -112.592       -0.0569269         136.335
0.688                   -11.4647         128.919         -35.4961        -114.695         -35.4961        -114.695        -0.057869         136.227
0.689                   -11.6153          128.53         -35.3833          -116.8         -35.3833          -116.8       -0.0588344         136.118
0.69                    -11.7681         128.145         -35.2704        -118.907         -35.2704        -118.907       -0.0598237         136.008
0.691                   -11.9235         127.766         -35.1574        -121.017         -35.1574        -121.017       -0.0608377         135.898
0.692                   -12.0814         127.393         -35.0443         -123.13         -35.0443         -123.13       -0.0618771         135.787
0.693                   -12.2421         127.027          -34.931        -125.246          -34.931        -125.246       -0.0629427         135.675
0.694                   -12.4056         126.668         -34.8177        -127.365         -34.8177        -127.365       -0.0640352         135.563
0.695                   -12.5722          126.32         -34.7042        -129.487         -34.7042        -129.487       -0.0651554          135.45
0.696                   -12.7419         125.981         -34.5908        -131.612         -34.5908        -131.612       -0.0663041         135.336
0.697                   -12.9149         125.655         -34.4773        -133.742         -34.4773        -133.742       -0.0674819         135.222