! TOUCHSTONE file generated by CST MICROWAVE STUDIO
! Date and time: Mon Sep 28 14:17:49 2020
! Project name: Scenario_1_Free_SPace.cst
! Parameters = {dx1=831.4; L_HA=400; MT=2.54; Rad_Dielectric=30; Rad_Lower=7.3; Rad_Upper=30; a_HA=580; a_WG=246; b_HA=500; b_WG=121; c_HA=0; c_WG=187; d_feed=85; h_feed=15; h_lower=18; h_upper=40}
! Header version: 2018
! Port assignment regex: !\s*Touchstone port\s*([0-9]+)\s*=\s*(CST MWS port|CST DS port)\s*([0-9]+|Zmin|Zmax)\s*\(\"(.*)\"\)(\s*mode\s*([0-9]+))?.*
! Touchstone port assignment:
! Touchstone port 1 = CST MWS port 1 ("")
! Touchstone port 2 = CST MWS port 2 ("")
# GHz S DB R 50
0.5                    -0.150241        -122.628         -62.8666         163.394         -62.8666         163.394      -0.00664285          151.14
0.501                  -0.155064        -123.062         -62.7162         161.284          -62.716         161.284      -0.00668421         151.074
0.502                  -0.160039        -123.498         -62.5632         159.171          -62.563         159.169      -0.00672702         151.009
0.503                  -0.165171        -123.937         -62.4078         157.053         -62.4074         157.051      -0.00677131         150.943
0.504                  -0.170467        -124.378         -62.2499         154.931         -62.2495         154.928      -0.00681709         150.878
0.505                  -0.175933        -124.822         -62.0898         152.805         -62.0893         152.802      -0.00686438         150.812
0.506                  -0.181575        -125.269         -61.9275         150.675         -61.9268         150.671      -0.00691321         150.746
0.507                    -0.1874        -125.718          -61.763         148.542         -61.7622         148.537       -0.0069636          150.68
0.508                  -0.193414        -126.169         -61.5964         146.404         -61.5956           146.4      -0.00701556         150.614
0.509                  -0.199624        -126.624         -61.4279         144.264          -61.427         144.258      -0.00706911         150.548
0.51                   -0.206037         -127.08         -61.2575         142.119         -61.2565         142.113      -0.00712428         150.482
0.511                   -0.21266         -127.54         -61.0852         139.971         -61.0842         139.965      -0.00718107         150.416
0.512                  -0.219501        -128.002         -60.9113         137.819         -60.9101         137.813      -0.00723952          150.35
0.513                  -0.226565        -128.466         -60.7357         135.663         -60.7345         135.657      -0.00729963         150.284
0.514                   -0.23386        -128.934         -60.5585         133.504         -60.5573         133.497      -0.00736141         150.217
0.515                  -0.241394        -129.403         -60.3799         131.341         -60.3786         131.334       -0.0074249         150.151
0.516                  -0.249174        -129.876         -60.1999         129.174         -60.1986         129.167       -0.0074901         150.084
0.517                  -0.257208        -130.351         -60.0187         127.003         -60.0173         126.996      -0.00755702         150.017
0.518                  -0.265502        -130.829         -59.8362         124.828         -59.8348          124.82      -0.00762568         149.951
0.519                  -0.274065        -131.309         -59.6527         122.648         -59.6512         122.641      -0.00769609         149.884
0.52                   -0.282904        -131.793         -59.4681         120.464         -59.4666         120.457      -0.00776827         149.817
0.521                  -0.292027        -132.278         -59.2826         118.276         -59.2811         118.268      -0.00784222          149.75
0.522                  -0.301441        -132.767         -59.0962         116.083         -59.0947         116.075      -0.00791796         149.683
0.523                  -0.311155        -133.258         -58.9091         113.885         -58.9076         113.877       -0.0079955         149.615
0.524                  -0.321176        -133.751         -58.7214         111.682         -58.7198         111.674      -0.00807484         149.548
0.525                  -0.331512        -134.247          -58.533         109.473         -58.5315         109.466        -0.008156         149.481
0.526                   -0.34217        -134.746         -58.3442          107.26         -58.3426         107.253      -0.00823898         149.413
0.527                  -0.353158        -135.248         -58.1549         105.041         -58.1534         105.034       -0.0083238         149.346
0.528                  -0.364484        -135.751         -57.9654         102.817         -57.9638          102.81      -0.00841044         149.278
0.529                  -0.376155        -136.258         -57.7756         100.586          -57.774          100.58      -0.00849893          149.21
0.53                   -0.388179        -136.767         -57.5856         98.3503         -57.5841         98.3438      -0.00858926         149.142
0.531                  -0.400564        -137.279         -57.3956         96.1081         -57.3941         96.1017      -0.00868143         149.074
0.532                  -0.413316        -137.793         -57.2056         93.8598         -57.2041         93.8536      -0.00877546         149.006
0.533                  -0.426443        -138.309         -57.0157         91.6052         -57.0142         91.5991      -0.00887134         148.938
0.534                  -0.439953        -138.828          -56.826         89.3441         -56.8245         89.3383      -0.00896907          148.87
0.535                   -0.45385        -139.349         -56.6366         87.0766         -56.6351         87.0709      -0.00906865         148.801
0.536                  -0.468144        -139.873         -56.4474         84.8025          -56.446         84.7971      -0.00917007         148.733
0.537                   -0.48284        -140.399         -56.2587         82.5218         -56.2573         82.5166      -0.00927335         148.664
0.538                  -0.497943        -140.928         -56.0705         80.2344         -56.0691         80.2294      -0.00937846         148.596
0.539                  -0.513462        -141.458         -55.8829         77.9403         -55.8815         77.9355      -0.00948541         148.527
0.54                     -0.5294        -141.991         -55.6959         75.6394         -55.6945         75.6348      -0.00959418         148.458
0.541                  -0.545765        -142.527         -55.5096         73.3317         -55.5083         73.3274      -0.00970478         148.389
0.542                   -0.56256        -143.064         -55.3241         71.0173         -55.3228         71.0132      -0.00981719          148.32
0.543                  -0.579791        -143.604         -55.1394         68.6962         -55.1382         68.6924      -0.00993139         148.251
0.544                  -0.597463        -144.145         -54.9557         66.3685         -54.9545         66.3649       -0.0100474         148.182
0.545                  -0.615578        -144.689          -54.773         64.0342         -54.7718         64.0308       -0.0101652         148.112
0.546                  -0.634143        -145.235         -54.5913         61.6933         -54.5901         61.6902       -0.0102847         148.043
0.547                  -0.653158        -145.783         -54.4108         59.3461         -54.4096         59.3432        -0.010406         147.973
0.548                  -0.672629        -146.332         -54.2314         56.9926         -54.2302           56.99        -0.010529         147.903
0.549                  -0.692556        -146.884         -54.0532          54.633         -54.0521         54.6306       -0.0106537         147.834
0.55                   -0.712943        -147.437         -53.8763         52.2675         -53.8752         52.2654       -0.0107802         147.764
0.551                   -0.73379        -147.993         -53.7007         49.8962         -53.6997         49.8943       -0.0109083         147.694
0.552                  -0.755099         -148.55         -53.5266         47.5193         -53.5255         47.5177        -0.011038         147.624
0.553                   -0.77687        -149.109         -53.3538         45.1371         -53.3528         45.1358       -0.0111694         147.553
0.554                  -0.799104        -149.669         -53.1825         42.7499         -53.1815         42.7487       -0.0113024         147.483
0.555                  -0.821799        -150.231         -53.0127         40.3577         -53.0117         40.3568       -0.0114369         147.412
0.556                  -0.844956        -150.795         -52.8444          37.961         -52.8435         37.9603        -0.011573         147.342
0.557                  -0.868571         -151.36         -52.6777           35.56         -52.6768         35.5595       -0.0117107         147.271
0.558                  -0.892645        -151.927         -52.5126         33.1549         -52.5117         33.1547       -0.0118498           147.2
0.559                  -0.917174        -152.496         -52.3491         30.7462         -52.3482         30.7461       -0.0119904         147.129
0.56                   -0.942154        -153.066         -52.1872          28.334         -52.1863         28.3342       -0.0121324         147.058
0.561                  -0.967584        -153.637         -52.0269         25.9188         -52.0261         25.9192       -0.0122758         146.987
0.562                  -0.993458         -154.21         -51.8684         23.5008         -51.8675         23.5014       -0.0124206         146.916
0.563                   -1.01977        -154.784         -51.7114         21.0804         -51.7106         21.0811       -0.0125668         146.844
0.564                   -1.04652         -155.36         -51.5561         18.6579         -51.5553         18.6588       -0.0127142         146.773
0.565                    -1.0737        -155.937         -51.4025         16.2336         -51.4017         16.2347       -0.0128629         146.701
0.566                   -1.10131        -156.515         -51.2506         13.8079         -51.2497         13.8092       -0.0130129         146.629
0.567                   -1.12934        -157.095         -51.1003         11.3812         -51.0994         11.3826       -0.0131641         146.557
0.568                   -1.15777        -157.676         -50.9516         8.95364         -50.9508         8.95516       -0.0133164         146.485
0.569                   -1.18662        -158.259         -50.8045         6.52568         -50.8037         6.52733       -0.0134699         146.413
0.57                    -1.21587        -158.843         -50.6591         4.09761         -50.6583         4.09938       -0.0136245         146.341
0.571                   -1.24551        -159.429         -50.5152         1.66973         -50.5144         1.67161       -0.0137802         146.268
0.572                   -1.27554        -160.016         -50.3728       -0.757643          -50.372       -0.755661       -0.0139369         146.195
0.573                   -1.30596        -160.604          -50.232        -3.18422         -50.2312        -3.18215       -0.0140947         146.123
0.574                   -1.33675        -161.194         -50.0927        -5.60972         -50.0919        -5.60757       -0.0142535          146.05
0.575                   -1.36791        -161.786         -49.9548        -8.03388          -49.954        -8.03165       -0.0144132         145.977
0.576                   -1.39944         -162.38         -49.8183        -10.4564         -49.8175        -10.4541        -0.014574         145.903
0.577                   -1.43133        -162.975         -49.6832        -12.8771         -49.6825        -12.8748       -0.0147356          145.83
0.578                   -1.46357        -163.572         -49.5495        -15.2958         -49.5487        -15.2934       -0.0148983         145.757
0.579                   -1.49617        -164.171          -49.417        -17.7122         -49.4162        -17.7097       -0.0150618         145.683
0.58                    -1.52911        -164.772         -49.2858         -20.126          -49.285        -20.1236       -0.0152263         145.609
0.581                   -1.56241        -165.375         -49.1558        -22.5373          -49.155        -22.5348       -0.0153917         145.535
0.582                   -1.59605         -165.98         -49.0269        -24.9457         -49.0261        -24.9432        -0.015558         145.461
0.583                   -1.63003        -166.587         -48.8991        -27.3512         -48.8984        -27.3486       -0.0157253         145.387
0.584                   -1.66436        -167.197         -48.7724        -29.7535         -48.7717         -29.751       -0.0158936         145.312
0.585                   -1.69904        -167.809         -48.6468        -32.1527          -48.646        -32.1502       -0.0160629         145.238
0.586                   -1.73407        -168.424          -48.522        -34.5487         -48.5213        -34.5461       -0.0162332         145.163
0.587                   -1.76945        -169.042         -48.3982        -36.9412         -48.3975        -36.9387       -0.0164046         145.088
0.588                    -1.8052        -169.663         -48.2752        -39.3303         -48.2745        -39.3279        -0.016577         145.013
0.589                   -1.84132        -170.287         -48.1531         -41.716         -48.1523        -41.7136       -0.0167507         144.937
0.59                    -1.87783        -170.914         -48.0317        -44.0982          -48.031        -44.0958       -0.0169256         144.862
0.591                   -1.91472        -171.544          -47.911         -46.477         -47.9103        -46.4746       -0.0171018         144.786
0.592                   -1.95202        -172.178          -47.791        -48.8522         -47.7903        -48.8498       -0.0172795          144.71
0.593                   -1.98974        -172.816         -47.6716         -51.224         -47.6709        -51.2216       -0.0174586         144.634
0.594                   -2.02789        -173.457         -47.5528        -53.5923         -47.5521          -53.59       -0.0176392         144.558
0.595                   -2.06651        -174.103         -47.4345        -55.9573         -47.4338         -55.955       -0.0178216         144.482
0.596                    -2.1056        -174.752         -47.3167        -58.3189          -47.316        -58.3167       -0.0180058         144.405
0.597                    -2.1452        -175.406         -47.1993        -60.6774         -47.1987        -60.6752       -0.0181918         144.328
0.598                   -2.18532        -176.064         -47.0824        -63.0326         -47.0817        -63.0305         -0.01838         144.251
0.599                   -2.22599        -176.727         -46.9658        -65.3848         -46.9652        -65.3827       -0.0185703         144.174
0.6                     -2.26726        -177.394         -46.8496         -67.734          -46.849         -67.732        -0.018763         144.097
0.601                   -2.30914        -178.066         -46.7336        -70.0804          -46.733        -70.0784       -0.0189581         144.019
0.602                   -2.35167        -178.744          -46.618        -72.4241         -46.6174        -72.4221       -0.0191558         143.941
0.603                   -2.39489        -179.426         -46.5025        -74.7651          -46.502        -74.7633       -0.0193564         143.863
0.604                   -2.43883         179.887         -46.3873        -77.1038         -46.3868        -77.1019       -0.0195599         143.785
0.605                   -2.48354         179.194         -46.2723        -79.4401         -46.2717        -79.4382       -0.0197665         143.707
0.606                   -2.52906         178.496         -46.1574        -81.7742         -46.1569        -81.7724       -0.0199764         143.628
0.607                   -2.57543         177.793         -46.0426        -84.1063         -46.0421        -84.1046       -0.0201897         143.549
0.608                   -2.62271         177.084          -45.928        -86.4365         -45.9275        -86.4348       -0.0204067          143.47
0.609                   -2.67093         176.369         -45.8135         -88.765          -45.813        -88.7634       -0.0206274         143.391
0.61                    -2.72015         175.649          -45.699         -91.092         -45.6986        -91.0904       -0.0208521         143.311
0.611                   -2.77041         174.924         -45.5846        -93.4176         -45.5842         -93.416       -0.0210809         143.231
0.612                   -2.82178         174.193         -45.4703        -95.7419         -45.4699        -95.7404        -0.021314         143.151
0.613                   -2.87431         173.456          -45.356        -98.0652         -45.3556        -98.0637       -0.0215515         143.071
0.614                   -2.92804         172.714         -45.2418        -100.388         -45.2414        -100.386       -0.0217935         142.991
0.615                   -2.98305         171.966         -45.1275        -102.709         -45.1271        -102.708       -0.0220403          142.91
0.616                   -3.03938         171.213         -45.0133         -105.03         -45.0129        -105.029       -0.0222919         142.829
0.617                   -3.09709         170.454         -44.8991        -107.351         -44.8988        -107.349       -0.0225485         142.748
0.618                   -3.15624         169.691          -44.785        -109.671         -44.7846         -109.67       -0.0228102         142.666
0.619                    -3.2169         168.922         -44.6708        -111.991         -44.6705         -111.99       -0.0230771         142.585
0.62                    -3.27912         168.148         -44.5567        -114.311         -44.5564         -114.31       -0.0233493         142.503
0.621                   -3.34296          167.37         -44.4426        -116.631         -44.4423         -116.63        -0.023627         142.421
0.622                   -3.40848         166.587         -44.3285        -118.952         -44.3282        -118.951       -0.0239102         142.338
0.623                   -3.47574           165.8         -44.2145        -121.273         -44.2142        -121.271        -0.024199         142.255
0.624                    -3.5448         165.009         -44.1005        -123.594         -44.1002        -123.593       -0.0244934         142.172
0.625                   -3.61571         164.214         -43.9865        -125.916         -43.9863        -125.915       -0.0247937         142.089
0.626                   -3.68854         163.416         -43.8727        -128.239         -43.8725        -128.237       -0.0250997         142.006
0.627                   -3.76335         162.615         -43.7589        -130.562         -43.7587        -130.561       -0.0254116         141.922
0.628                   -3.84018         161.811         -43.6452        -132.886          -43.645        -132.885       -0.0257294         141.838
0.629                   -3.91909         161.004         -43.5316        -135.212         -43.5314        -135.211       -0.0260532         141.754
0.63                    -4.00013         160.195         -43.4181        -137.538          -43.418        -137.537       -0.0263829         141.669
0.631                   -4.08336         159.385         -43.3048        -139.865         -43.3046        -139.864       -0.0267187         141.584
0.632                   -4.16881         158.574         -43.1916        -142.194         -43.1915        -142.193       -0.0270606         141.499
0.633                   -4.25655         157.762         -43.0786        -144.523         -43.0785        -144.523       -0.0274085         141.414
0.634                    -4.3466          156.95         -42.9658        -146.854         -42.9657        -146.854       -0.0277625         141.328
0.635                   -4.43901         156.138         -42.8532        -149.187          -42.853        -149.186       -0.0281227         141.242
0.636                   -4.53382         155.327         -42.7408         -151.52         -42.7406        -151.519        -0.028489         141.156
0.637                   -4.63105         154.517         -42.6286        -153.854         -42.6285        -153.854       -0.0288614         141.069
0.638                   -4.73075         153.709         -42.5167         -156.19         -42.5166         -156.19       -0.0292401         140.982
0.639                   -4.83294         152.904         -42.4051        -158.527          -42.405        -158.527       -0.0296249         140.895
0.64                    -4.93764         152.102         -42.2937        -160.866         -42.2937        -160.865        -0.030016         140.807
0.641                   -5.04487         151.304         -42.1827        -163.205         -42.1826        -163.204       -0.0304133          140.72
0.642                   -5.15464          150.51          -42.072        -165.545         -42.0719        -165.545       -0.0308168         140.631
0.643                   -5.26697         149.721         -41.9616        -167.887         -41.9616        -167.886       -0.0312267         140.543
0.644                   -5.38186         148.938         -41.8516        -170.229         -41.8516        -170.229       -0.0316429         140.454
0.645                   -5.49932         148.161          -41.742        -172.572          -41.742        -172.572       -0.0320654         140.365
0.646                   -5.61933         147.392         -41.6328        -174.916         -41.6327        -174.916       -0.0324944         140.275
0.647                   -5.74188          146.63         -41.5239        -177.261         -41.5239        -177.261       -0.0329298         140.186
0.648                   -5.86698         145.877         -41.4155        -179.606         -41.4155        -179.606       -0.0333718         140.095
0.649                   -5.99458         145.133         -41.3075         178.048         -41.3075         178.048       -0.0338203         140.005
0.65                    -6.12467         144.398         -41.1999         175.702         -41.1999         175.701       -0.0342755         139.914
0.651                   -6.25722         143.675         -41.0928         173.355         -41.0928         173.355       -0.0347374         139.823
0.652                   -6.39219         142.963         -40.9861         171.009         -40.9861         171.008       -0.0352062         139.731
0.653                   -6.52953         142.263         -40.8798         168.662         -40.8799         168.662       -0.0356818         139.639
0.654                    -6.6692         141.575         -40.7741         166.316         -40.7741         166.315       -0.0361645         139.547
0.655                   -6.81114         140.901         -40.6687          163.97         -40.6688         163.969       -0.0366543         139.454
0.656                   -6.95528         140.241         -40.5638         161.624         -40.5639         161.623       -0.0371514         139.361
0.657                   -7.10157         139.596         -40.4594         159.279         -40.4595         159.278        -0.037656         139.267
0.658                   -7.24992         138.967         -40.3554         156.935         -40.3555         156.934       -0.0381681         139.173
0.659                   -7.40026         138.353         -40.2519         154.591          -40.252          154.59       -0.0386879         139.079
0.66                     -7.5525         137.756         -40.1488         152.249         -40.1489         152.248       -0.0392157         138.984
0.661                   -7.70654         137.176         -40.0462         149.908         -40.0463         149.906       -0.0397516         138.888
0.662                   -7.86229         136.615         -39.9439         147.568          -39.944         147.566       -0.0402958         138.793
0.663                   -8.01965         136.071         -39.8421         145.229         -39.8422         145.228       -0.0408485         138.696
0.664                   -8.17849         135.546         -39.7406         142.892         -39.7408         142.891       -0.0414101           138.6
0.665                   -8.33872         135.041         -39.6396         140.557         -39.6397         140.555       -0.0419807         138.503
0.666                    -8.5002         134.555         -39.5389         138.223          -39.539         138.222       -0.0425606         138.405
0.667                   -8.66281          134.09         -39.4385         135.891         -39.4387          135.89       -0.0431501         138.307
0.668                   -8.82643         133.645         -39.3385         133.562         -39.3387          133.56       -0.0437496         138.208
0.669                   -8.99091          133.22         -39.2388         131.234          -39.239         131.233       -0.0443593         138.109
0.67                    -9.15612         132.816         -39.1393         128.909         -39.1395         128.908       -0.0449796          138.01
0.671                   -9.32193         132.433         -39.0401         126.586         -39.0403         126.585       -0.0456109          137.91
0.672                   -9.48819         132.072         -38.9412         124.266         -38.9414         124.264       -0.0462536         137.809
0.673                   -9.65476         131.731         -38.8424         121.948         -38.8426         121.946        -0.046908         137.708
0.674                   -9.82149         131.411         -38.7438         119.632          -38.744          119.63       -0.0475747         137.606
0.675                   -9.98824         131.113         -38.6454         117.319         -38.6456         117.317        -0.048254         137.504
0.676                   -10.1549         130.835          -38.547         115.009         -38.5473         115.007       -0.0489465         137.401
0.677                   -10.3213         130.577         -38.4488         112.701          -38.449         112.699       -0.0496526         137.298
0.678                   -10.4873          130.34         -38.3506         110.396         -38.3509         110.394       -0.0503729         137.194
0.679                   -10.6527         130.122         -38.2524         108.093         -38.2527         108.092        -0.051108          137.09
0.68                    -10.8176         129.924         -38.1543         105.793         -38.1545         105.792       -0.0518583         136.984
0.681                   -10.9816         129.744         -38.0561         103.496         -38.0563         103.494       -0.0526246         136.879
0.682                   -11.1448         129.582         -37.9578         101.201         -37.9581         101.199       -0.0534075         136.772
0.683                   -11.3071         129.438         -37.8594         98.9082         -37.8597         98.9069       -0.0542076         136.665
0.684                   -11.4683         129.311         -37.7609         96.6182         -37.7612         96.6169       -0.0550255         136.558
0.685                   -11.6283           129.2         -37.6622         94.3304         -37.6625         94.3292       -0.0558622         136.449
0.686                   -11.7872         129.104         -37.5634         92.0449         -37.5636         92.0437       -0.0567181          136.34
0.687                   -11.9448         129.022         -37.4643         89.7614         -37.4645         89.7603       -0.0575943         136.231
0.688                   -12.1011         128.954         -37.3649           87.48         -37.3652         87.4789       -0.0584913          136.12
0.689                   -12.2562         128.899         -37.2653         85.2004         -37.2655         85.1994       -0.0594102         136.009
0.69                    -12.4099         128.855         -37.1654         82.9225         -37.1656         82.9215       -0.0603517         135.898
0.691                   -12.5624         128.823         -37.0651         80.6461         -37.0653         80.6452       -0.0613167         135.785
0.692                   -12.7136         128.801         -36.9644         78.3711         -36.9646         78.3703       -0.0623062         135.672
0.693                   -12.8636         128.788         -36.8634         76.0973         -36.8636         76.0966       -0.0633211         135.558
0.694                   -13.0125         128.785         -36.7619         73.8245         -36.7621         73.8239       -0.0643623         135.443
0.695                   -13.1602         128.789           -36.66         71.5525         -36.6602         71.5519       -0.0654309         135.328
0.696                   -13.3071         128.801         -36.5577         69.2811         -36.5579         69.2806        -0.066528         135.212
0.697                    -13.453          128.82         -36.4549         67.0101         -36.4551         67.0096       -0.0676544         135.094