! TOUCHSTONE file generated by CST MICROWAVE STUDIO
! Date and time: Mon Sep 28 15:31:03 2020
! Project name: Scenario_1_Free_SPace.cst
! Parameters = {dx1=883.4; L_HA=400; MT=2.54; Rad_Dielectric=30; Rad_Lower=7.3; Rad_Upper=30; a_HA=580; a_WG=246; b_HA=500; b_WG=121; c_HA=0; c_WG=187; d_feed=85; h_feed=15; h_lower=18; h_upper=40}
! Header version: 2018
! Port assignment regex: !\s*Touchstone port\s*([0-9]+)\s*=\s*(CST MWS port|CST DS port)\s*([0-9]+|Zmin|Zmax)\s*\(\"(.*)\"\)(\s*mode\s*([0-9]+))?.*
! Touchstone port assignment:
! Touchstone port 1 = CST MWS port 1 ("")
! Touchstone port 2 = CST MWS port 2 ("")
# GHz S DB R 50
0.5                    -0.147302        -122.385         -63.1411         134.142         -63.1411         134.142      -0.00648828         151.138
0.501                  -0.154191        -122.841         -62.6667         129.957         -62.7021         130.334      -0.00655801         151.072
0.502                  -0.161293        -123.298          -62.214         126.028          -62.281         126.715      -0.00662851         151.007
0.503                  -0.168607        -123.757         -61.7829         122.318         -61.8777         123.259      -0.00669978         150.942
0.504                  -0.176136        -124.217          -61.373         118.797         -61.4918         119.946      -0.00677182         150.876
0.505                  -0.183881        -124.678         -60.9832          115.44         -61.1225         116.759      -0.00684463         150.811
0.506                  -0.191841        -125.141         -60.6128         112.226         -60.7693         113.683      -0.00691822         150.745
0.507                  -0.200018        -125.605         -60.2606         109.135         -60.4314         110.704      -0.00699259         150.679
0.508                  -0.208413        -126.071         -59.9256         106.155         -60.1081         107.812      -0.00706775         150.613
0.509                  -0.217026        -126.538         -59.6067          103.27         -59.7985         104.997      -0.00714369         150.548
0.51                   -0.225859        -127.006          -59.303         100.471         -59.5019         102.251      -0.00722042         150.482
0.511                  -0.234913        -127.476         -59.0134         97.7472         -59.2176         99.5671      -0.00729795         150.416
0.512                  -0.244188        -127.948         -58.7371         95.0915          -58.945         96.9388      -0.00737627          150.35
0.513                  -0.253685        -128.421         -58.4732         92.4964         -58.6833         94.3606       -0.0074554         150.283
0.514                  -0.263406        -128.895         -58.2209         89.9558         -58.4319         91.8279      -0.00753533         150.217
0.515                  -0.273351        -129.371         -57.9794         87.4643         -58.1903         89.3364      -0.00761606         150.151
0.516                  -0.283522        -129.848          -57.748          85.017         -57.9579         86.8822      -0.00769761         150.084
0.517                  -0.293918        -130.327         -57.5261         82.6098         -57.7341         84.4621      -0.00777998         150.018
0.518                  -0.304542        -130.807         -57.3131          80.239         -57.5185          82.073      -0.00786316         149.951
0.519                  -0.315394        -131.289         -57.1083          77.901         -57.3106         79.7123      -0.00794717         149.885
0.52                   -0.326476        -131.772         -56.9113          75.593           -57.11         77.3774        -0.008032         149.818
0.521                  -0.337787        -132.257         -56.7216         73.3121         -56.9161         75.0662      -0.00811767         149.751
0.522                  -0.349331        -132.744         -56.5386         71.0558         -56.7287         72.7766      -0.00820417         149.684
0.523                  -0.361106        -133.232          -56.362          68.822         -56.5473         70.5068      -0.00829152         149.617
0.524                  -0.373116        -133.721         -56.1913         66.6086         -56.3717          68.255       -0.0083797          149.55
0.525                   -0.38536        -134.212         -56.0261         64.4136         -56.2014         66.0198      -0.00846874         149.483
0.526                   -0.39784        -134.705         -55.8662         62.2353         -56.0361         63.7997      -0.00855864         149.416
0.527                  -0.410558          -135.2         -55.7111         60.0721         -55.8756         61.5932      -0.00864939         149.348
0.528                  -0.423514        -135.696         -55.5606         57.9225         -55.7196         59.3992        -0.008741         149.281
0.529                   -0.43671        -136.193         -55.4143          55.785         -55.5677         57.2165      -0.00883349         149.213
0.53                   -0.450147        -136.693         -55.2719         53.6585         -55.4198          55.044      -0.00892685         149.146
0.531                  -0.463827        -137.194         -55.1333         51.5416         -55.2756         52.8807      -0.00902108         149.078
0.532                  -0.477751        -137.696          -54.998         49.4333         -55.1348         50.7255      -0.00911621          149.01
0.533                  -0.491921        -138.201          -54.866         47.3325         -54.9973         48.5777      -0.00921222         148.942
0.534                  -0.506338        -138.707          -54.737         45.2382         -54.8628         46.4362      -0.00930913         148.874
0.535                  -0.521003        -139.215         -54.6107         43.1494         -54.7311         44.3003      -0.00940694         148.806
0.536                   -0.53592        -139.725          -54.487         41.0652         -54.6021         42.1693      -0.00950565         148.738
0.537                  -0.551088        -140.236         -54.3657         38.9848         -54.4755         40.0423      -0.00960528          148.67
0.538                  -0.566511         -140.75         -54.2465         36.9075         -54.3512         37.9188      -0.00970583         148.601
0.539                  -0.582191        -141.265         -54.1294         34.8324          -54.229         35.7979       -0.0098073         148.533
0.54                   -0.598128        -141.782         -54.0142         32.7588         -54.1088         33.6792      -0.00990971         148.464
0.541                  -0.614325        -142.301         -53.9006         30.6862         -53.9904         31.5619        -0.010013         148.396
0.542                  -0.630785        -142.822         -53.7886         28.6137         -53.8737         29.4456       -0.0101173         148.327
0.543                   -0.64751        -143.345          -53.678         26.5409         -53.7584         27.3296       -0.0102226         148.258
0.544                  -0.664502         -143.87         -53.5687         24.4671         -53.6446         25.2134       -0.0103288         148.189
0.545                  -0.681764        -144.396         -53.4605         22.3918          -53.532         23.0966       -0.0104359          148.12
0.546                  -0.699299        -144.925         -53.3534         20.3145         -53.4206         20.9786       -0.0105441         148.051
0.547                  -0.717108        -145.456         -53.2472         18.2347         -53.3102         18.8591       -0.0106532         147.981
0.548                  -0.735196        -145.989         -53.1417         16.1519         -53.2007         16.7376       -0.0107633         147.912
0.549                  -0.753564        -146.524          -53.037         14.0657         -53.0921         14.6136       -0.0108744         147.842
0.55                   -0.772217        -147.061         -52.9328         11.9757         -52.9841         12.4867       -0.0109865         147.773
0.551                  -0.791158        -147.601         -52.8292          9.8814         -52.8768         10.3567       -0.0110996         147.703
0.552                   -0.81039        -148.142         -52.7259         7.78254         -52.7699         8.22318       -0.0112137         147.633
0.553                  -0.829917        -148.686         -52.6229         5.67873         -52.6635         6.08574       -0.0113289         147.563
0.554                  -0.849743        -149.232         -52.5202         3.56965         -52.5575          3.9441        -0.011445         147.493
0.555                  -0.869872        -149.781         -52.4176         1.45498         -52.4517         1.79796       -0.0115623         147.423
0.556                  -0.890308        -150.331         -52.3151       -0.665569          -52.346       -0.352961       -0.0116806         147.352
0.557                  -0.911056        -150.884         -52.2126        -2.79226         -52.2405        -2.50893       -0.0117999         147.282
0.558                  -0.932121         -151.44           -52.11        -4.92535         -52.1351        -4.67021       -0.0119203         147.211
0.559                  -0.953507        -151.998         -52.0072        -7.06506         -52.0296        -6.83701       -0.0120419         147.141
0.56                    -0.97522        -152.558         -51.9043        -9.21162          -51.924        -9.00957       -0.0121645          147.07
0.561                  -0.997265        -153.121         -51.8011        -11.3652         -51.8183        -11.1881       -0.0122882         146.999
0.562                   -1.01965        -153.687         -51.6976        -13.5261         -51.7124        -13.3727        -0.012413         146.928
0.563                   -1.04238        -154.255         -51.5937        -15.6943         -51.6063        -15.5637       -0.0125389         146.857
0.564                   -1.06545        -154.826         -51.4894        -17.8701         -51.4998        -17.7612        -0.012666         146.785
0.565                   -1.08889        -155.399         -51.3847        -20.0535          -51.393        -19.9652       -0.0127942         146.714
0.566                   -1.11269        -155.975         -51.2795        -22.2447         -51.2858         -22.176       -0.0129236         146.642
0.567                   -1.13686        -156.554         -51.1737        -24.4439         -51.1781        -24.3937       -0.0130542         146.571
0.568                   -1.16141        -157.136         -51.0674         -26.651           -51.07        -26.6184        -0.013186         146.499
0.569                   -1.18634        -157.721         -50.9605        -28.8661         -50.9614        -28.8501       -0.0133189         146.427
0.57                    -1.21168        -158.309         -50.8529        -31.0894         -50.8523         -31.089       -0.0134531         146.355
0.571                   -1.23742        -158.899         -50.7447        -33.3209         -50.7426        -33.3351       -0.0135885         146.283
0.572                   -1.26357        -159.493         -50.6358        -35.5605         -50.6324        -35.5884       -0.0137251          146.21
0.573                   -1.29015         -160.09         -50.5263        -37.8084         -50.5215        -37.8491       -0.0138631         146.138
0.574                   -1.31716         -160.69          -50.416        -40.0646         -50.4101        -40.1171       -0.0140023         146.065
0.575                   -1.34462        -161.293          -50.305        -42.3289          -50.298        -42.3924       -0.0141428         145.992
0.576                   -1.37253        -161.899         -50.1933        -44.6015         -50.1852        -44.6752       -0.0142846         145.919
0.577                   -1.40091        -162.509         -50.0808        -46.8822         -50.0719        -46.9652       -0.0144277         145.846
0.578                   -1.42978        -163.121         -49.9677        -49.1711         -49.9579        -49.2627       -0.0145722         145.773
0.579                   -1.45914        -163.738         -49.8538        -51.4682         -49.8432        -51.5675       -0.0147181         145.699
0.58                    -1.48901        -164.357         -49.7391        -53.7732         -49.7279        -53.8795       -0.0148654         145.626
0.581                    -1.5194         -164.98         -49.6238        -56.0863         -49.6119        -56.1989       -0.0150142         145.552
0.582                   -1.55032        -165.607         -49.5077        -58.4072         -49.4953        -58.5254       -0.0151644         145.478
0.583                    -1.5818        -166.237         -49.3909         -60.736         -49.3781        -60.8591       -0.0153161         145.404
0.584                   -1.61385        -166.871         -49.2735        -63.0725         -49.2603        -63.1998       -0.0154693          145.33
0.585                   -1.64649        -167.508         -49.1554        -65.4166         -49.1419        -65.5476       -0.0156241         145.256
0.586                   -1.67973        -168.149         -49.0366        -67.7682         -49.0229        -67.9022       -0.0157805         145.181
0.587                    -1.7136        -168.794         -48.9172        -70.1272         -48.9033        -70.2637       -0.0159385         145.107
0.588                    -1.7481        -169.442         -48.7972        -72.4934         -48.7832        -72.6319       -0.0160982         145.032
0.589                   -1.78327        -170.094         -48.6767        -74.8668         -48.6625        -75.0066       -0.0162596         144.957
0.59                    -1.81913        -170.751         -48.5556        -77.2471         -48.5414        -77.3879       -0.0164228         144.881
0.591                   -1.85568        -171.411          -48.434        -79.6343         -48.4198        -79.7755       -0.0165878         144.806
0.592                   -1.89297        -172.074         -48.3119         -82.028         -48.2978        -82.1693       -0.0167548         144.731
0.593                   -1.93101        -172.742         -48.1894        -84.4283         -48.1754        -84.5692       -0.0169237         144.655
0.594                   -1.96983        -173.414         -48.0664        -86.8349         -48.0527        -86.9749       -0.0170946         144.579
0.595                   -2.00944        -174.089         -47.9431        -89.2476         -47.9296        -89.3865       -0.0172677         144.503
0.596                   -2.04989        -174.769         -47.8195        -91.6662         -47.8062        -91.8036       -0.0174429         144.427
0.597                   -2.09119        -175.452         -47.6956        -94.0906         -47.6825        -94.2262       -0.0176204          144.35
0.598                   -2.13337         -176.14         -47.5714        -96.5205         -47.5587         -96.654       -0.0178004         144.273
0.599                   -2.17647        -176.831         -47.4471        -98.9558         -47.4347        -99.0869       -0.0179828         144.197
0.6                     -2.22051        -177.526         -47.3226        -101.396         -47.3105        -101.525       -0.0181679          144.12
0.601                   -2.26552        -178.226         -47.1979        -103.841         -47.1862        -103.967       -0.0183557         144.042
0.602                   -2.31153        -178.929         -47.0733        -106.291         -47.0619        -106.414       -0.0185464         143.965
0.603                   -2.35858        -179.635         -46.9485        -108.746         -46.9376        -108.865       -0.0187401         143.887
0.604                   -2.40669         179.654         -46.8238        -111.204         -46.8133         -111.32        -0.018937         143.809
0.605                   -2.45591          178.94         -46.6992        -113.667         -46.6891        -113.779       -0.0191373         143.731
0.606                   -2.50626         178.222         -46.5746        -116.133          -46.565        -116.242       -0.0193412         143.653
0.607                   -2.55779           177.5         -46.4503        -118.603         -46.4411        -118.708       -0.0195488         143.575
0.608                   -2.61052         176.775         -46.3261        -121.076         -46.3173        -121.177       -0.0197603         143.496
0.609                   -2.66449         176.047         -46.2021        -123.552         -46.1938        -123.649       -0.0199759         143.417
0.61                    -2.71973         175.316         -46.0784         -126.03         -46.0705        -126.123       -0.0201959         143.338
0.611                   -2.77629         174.581          -45.955        -128.511         -45.9476          -128.6       -0.0204205         143.259
0.612                   -2.83419         173.844          -45.832        -130.994          -45.825        -131.079       -0.0206499         143.179
0.613                   -2.89348         173.103         -45.7093        -133.479         -45.7028         -133.56       -0.0208842         143.099
0.614                   -2.95418         172.361         -45.5871        -135.966         -45.5809        -136.043       -0.0211237         143.019
0.615                   -3.01633         171.615         -45.4653        -138.454         -45.4596        -138.527       -0.0213687         142.939
0.616                   -3.07997         170.868          -45.344        -140.943         -45.3387        -141.012       -0.0216192         142.858
0.617                   -3.14513         170.119         -45.2232        -143.433         -45.2183        -143.498       -0.0218755         142.778
0.618                   -3.21184         169.368          -45.103        -145.924         -45.0984        -145.985       -0.0221377         142.697
0.619                   -3.28013         168.615         -44.9833        -148.414         -44.9791        -148.472       -0.0224059         142.616
0.62                    -3.35003         167.861         -44.8642        -150.905         -44.8603        -150.959       -0.0226801         142.534
0.621                   -3.42157         167.107         -44.7457        -153.396         -44.7421        -153.445       -0.0229606         142.452
0.622                   -3.49477         166.352         -44.6278        -155.886         -44.6246        -155.932       -0.0232472         142.371
0.623                   -3.56965         165.596         -44.5105        -158.375         -44.5076        -158.418       -0.0235399         142.288
0.624                   -3.64624         164.841         -44.3939        -160.863         -44.3913        -160.903       -0.0238387         142.206
0.625                   -3.72455         164.086          -44.278         -163.35         -44.2756        -163.386       -0.0241436         142.123
0.626                   -3.80461         163.332         -44.1627        -165.836         -44.1606        -165.869       -0.0244543         142.041
0.627                   -3.88641          162.58         -44.0481         -168.32         -44.0462        -168.349       -0.0247708         141.957
0.628                   -3.96997         161.828         -43.9341        -170.802         -43.9324        -170.828       -0.0250928         141.874
0.629                   -4.05529         161.079         -43.8208        -173.281         -43.8194        -173.305       -0.0254203         141.791
0.63                    -4.14237         160.332         -43.7082        -175.759         -43.7069         -175.78        -0.025753         141.707
0.631                   -4.23122         159.588         -43.5962        -178.234         -43.5952        -178.253       -0.0260907         141.623
0.632                   -4.32182         158.846         -43.4849         179.294          -43.484         179.278       -0.0264333         141.538
0.633                   -4.41416         158.109         -43.3743         176.825         -43.3735         176.811       -0.0267805         141.453
0.634                   -4.50823         157.375         -43.2643         174.359         -43.2636         174.346       -0.0271323         141.369
0.635                   -4.60401         156.646         -43.1549         171.896         -43.1544         171.885       -0.0274886         141.283
0.636                   -4.70147         155.921         -43.0461         169.436         -43.0457         169.428       -0.0278492         141.198
0.637                   -4.80059         155.201         -42.9379          166.98         -42.9376         166.973       -0.0282141         141.112
0.638                   -4.90133         154.486         -42.8303         164.527           -42.83         164.522       -0.0285832         141.026
0.639                   -5.00366         153.777         -42.7232         162.078          -42.723         162.074       -0.0289567          140.94
0.64                    -5.10755         153.074         -42.6166         159.632         -42.6165          159.63       -0.0293344         140.853
0.641                   -5.21295         152.378         -42.5106         157.191         -42.5105          157.19       -0.0297165         140.766
0.642                   -5.31981         151.687          -42.405         154.753          -42.405         154.753       -0.0301032         140.679
0.643                    -5.4281         151.004         -42.2999         152.319         -42.2999         152.321       -0.0304944         140.591
0.644                   -5.53776         150.327         -42.1952          149.89         -42.1953         149.892       -0.0308905         140.503
0.645                   -5.64873         149.657          -42.091         147.464          -42.091         147.466       -0.0312915         140.415
0.646                   -5.76099         148.995         -41.9871         145.042         -41.9872         145.045       -0.0316977         140.326
0.647                   -5.87446         148.339         -41.8835         142.624         -41.8836         142.628       -0.0321093         140.238
0.648                    -5.9891         147.691         -41.7803          140.21         -41.7804         140.214       -0.0325266         140.148
0.649                   -6.10486          147.05         -41.6773         137.799         -41.6775         137.804       -0.0329498         140.059
0.65                     -6.2217         146.417         -41.5747         135.393         -41.5748         135.398       -0.0333793         139.969
0.651                   -6.33956          145.79         -41.4722          132.99         -41.4724         132.996       -0.0338152         139.878
0.652                   -6.45841         145.171           -41.37         130.591         -41.3701         130.597        -0.034258         139.788
0.653                    -6.5782         144.558         -41.2679         128.196          -41.268         128.202       -0.0347078         139.697
0.654                    -6.6989         143.953          -41.166         125.804         -41.1661          125.81       -0.0351651         139.605
0.655                   -6.82048         143.354         -41.0642         123.416         -41.0643         123.422       -0.0356302         139.513
0.656                    -6.9429         142.761         -40.9625         121.031         -40.9626         121.036       -0.0361034         139.421
0.657                   -7.06616         142.174         -40.8608         118.649         -40.8609         118.654       -0.0365851         139.328
0.658                   -7.19024         141.593         -40.7592          116.27         -40.7593         116.275       -0.0370756         139.235
0.659                   -7.31513         141.018         -40.6576         113.894         -40.6577         113.899       -0.0375753         139.142
0.66                    -7.44083         140.448          -40.556          111.52         -40.5561         111.525       -0.0380846         139.048
0.661                   -7.56735         139.883         -40.4544         109.149         -40.4544         109.154       -0.0386038         138.954
0.662                    -7.6947         139.322         -40.3527         106.781         -40.3527         106.785       -0.0391334         138.859
0.663                    -7.8229         138.766         -40.2509         104.415          -40.251         104.419       -0.0396737         138.764
0.664                   -7.95199         138.214         -40.1491          102.05         -40.1491         102.054       -0.0402251         138.668
0.665                     -8.082         137.666         -40.0471          99.688         -40.0471         99.6916       -0.0407881         138.572
0.666                   -8.21298         137.121         -39.9449         97.3271          -39.945         97.3305        -0.041363         138.475
0.667                   -8.34499          136.58         -39.8427         94.9678         -39.8427         94.9708       -0.0419504         138.378
0.668                   -8.47809         136.041         -39.7402         92.6096         -39.7402         92.6123       -0.0425506         138.281
0.669                   -8.61235         135.506         -39.6376         90.2525         -39.6376         90.2549       -0.0431641         138.183
0.67                    -8.74785         134.973         -39.5348         87.8962         -39.5348         87.8982       -0.0437913         138.085
0.671                   -8.88468         134.442         -39.4318         85.5404         -39.4318         85.5422       -0.0444327         137.986
0.672                   -9.02293         133.914         -39.3286         83.1851         -39.3286         83.1866       -0.0450888         137.886
0.673                   -9.16271         133.388         -39.2251         80.8299         -39.2251         80.8311         -0.04576         137.787
0.674                   -9.30412         132.865         -39.1215         78.4747         -39.1215         78.4756       -0.0464469         137.686
0.675                   -9.44729         132.344         -39.0176         76.1192         -39.0176         76.1199         -0.04715         137.585
0.676                   -9.59233         131.826         -38.9135         73.7633         -38.9135         73.7637       -0.0478696         137.484
0.677                   -9.73939         131.311         -38.8092         71.4067         -38.8092         71.4068       -0.0486064         137.382
0.678                   -9.88859         130.799         -38.7046         69.0491         -38.7046          69.049       -0.0493609          137.28
0.679                   -10.0401         130.291         -38.5998         66.6905         -38.5998         66.6902       -0.0501336         137.176
0.68                     -10.194         129.787         -38.4948         64.3306         -38.4948         64.3301        -0.050925         137.073
0.681                   -10.3505         129.287         -38.3896         61.9691         -38.3896         61.9685       -0.0517356         136.969
0.682                   -10.5098         128.793         -38.2842          59.606         -38.2842         59.6051        -0.052566         136.864
0.683                    -10.672         128.305         -38.1786         57.2409         -38.1786           57.24       -0.0534167         136.759
0.684                   -10.8372         127.824         -38.0728         54.8738         -38.0728         54.8727       -0.0542883         136.653
0.685                   -11.0057         127.351         -37.9668         52.5044         -37.9669         52.5032       -0.0551813         136.547
0.686                   -11.1776         126.887         -37.8607         50.1326         -37.8608         50.1313       -0.0560962          136.44
0.687                   -11.3531         126.433         -37.7545         47.7582         -37.7545         47.7569       -0.0570336         136.332
0.688                   -11.5323         125.992         -37.6481          45.381         -37.6482         45.3797        -0.057994         136.224
0.689                   -11.7155         125.564         -37.5416          43.001         -37.5417         42.9996       -0.0589779         136.115
0.69                    -11.9027         125.151         -37.4351          40.618         -37.4352         40.6165       -0.0599859         136.006
0.691                   -12.0942         124.757         -37.3285         38.2318         -37.3286         38.2303       -0.0610184         135.895
0.692                   -12.2901         124.381         -37.2219         35.8423          -37.222         35.8409       -0.0620759         135.785
0.693                   -12.4906         124.028         -37.1153         33.4495         -37.1153         33.4481        -0.063159         135.673
0.694                   -12.6957           123.7         -37.0086         31.0532         -37.0087         31.0519       -0.0642681         135.561
0.695                   -12.9056           123.4         -36.9021         28.6534         -36.9022         28.6521       -0.0654037         135.449
0.696                   -13.1204         123.131         -36.7956         26.2501         -36.7957         26.2488       -0.0665662         135.335
0.697                   -13.3402         122.897         -36.6892          23.843         -36.6893         23.8419        -0.067756         135.221