! TOUCHSTONE file generated by CST MICROWAVE STUDIO
! Date and time: Mon Sep 28 15:35:43 2020
! Project name: Scenario_1_Free_SPace.cst
! Parameters = {dx1=953; L_HA=400; MT=2.54; Rad_Dielectric=30; Rad_Lower=7.3; Rad_Upper=30; a_HA=580; a_WG=246; b_HA=500; b_WG=121; c_HA=0; c_WG=187; d_feed=85; h_feed=15; h_lower=18; h_upper=40}
! Header version: 2018
! Port assignment regex: !\s*Touchstone port\s*([0-9]+)\s*=\s*(CST MWS port|CST DS port)\s*([0-9]+|Zmin|Zmax)\s*\(\"(.*)\"\)(\s*mode\s*([0-9]+))?.*
! Touchstone port assignment:
! Touchstone port 1 = CST MWS port 1 ("")
! Touchstone port 2 = CST MWS port 2 ("")
# GHz S DB R 50
0.5                    -0.145495        -122.561         -63.3472         94.7439         -63.3472         94.7439      -0.00656712         151.134
0.501                  -0.152166        -122.991         -63.2346         92.0653         -63.2347         92.0652       -0.0066443         151.069
0.502                  -0.158929        -123.423         -63.1142         89.3912         -63.1143          89.391      -0.00672178         151.003
0.503                  -0.165792        -123.858         -62.9862          86.724         -62.9864         86.7238      -0.00679959         150.938
0.504                  -0.172762        -124.295         -62.8509         84.0661         -62.8511         84.0658      -0.00687774         150.872
0.505                  -0.179846        -124.735         -62.7085         81.4195         -62.7087          81.419      -0.00695622         150.807
0.506                  -0.187053        -125.178         -62.5593          78.786         -62.5596         78.7855      -0.00703507         150.741
0.507                  -0.194389        -125.624         -62.4037         76.1674          -62.404         76.1667      -0.00711429         150.675
0.508                  -0.201862        -126.073          -62.242          73.565         -62.2423         73.5642      -0.00719389         150.609
0.509                  -0.209479        -126.524         -62.0746         70.9801         -62.0749         70.9791      -0.00727389         150.544
0.51                   -0.217248        -126.978         -61.9017         68.4135          -61.902         68.4125       -0.0073543         150.478
0.511                  -0.225177        -127.435         -61.7238         65.8661         -61.7241          65.865      -0.00743513         150.411
0.512                  -0.233272        -127.894         -61.5412         63.3383         -61.5415         63.3371       -0.0075164         150.345
0.513                  -0.241541        -128.357         -61.3543         60.8306         -61.3546         60.8293      -0.00759812         150.279
0.514                  -0.249992        -128.822         -61.1634          58.343         -61.1636         58.3417      -0.00768031         150.213
0.515                  -0.258633         -129.29         -60.9688         55.8755          -60.969         55.8742      -0.00776297         150.146
0.516                  -0.267469         -129.76         -60.7708          53.428          -60.771         53.4267      -0.00784613          150.08
0.517                   -0.27651        -130.234         -60.5698         51.0002           -60.57         50.9989      -0.00792979         150.013
0.518                  -0.285762         -130.71         -60.3661         48.5915         -60.3662         48.5903      -0.00801397         149.947
0.519                  -0.295233        -131.189           -60.16         46.2014         -60.1601         46.2003      -0.00809869          149.88
0.52                    -0.30493        -131.671         -59.9517         43.8293         -59.9517         43.8283      -0.00818396         149.813
0.521                  -0.314861        -132.155         -59.7415         41.4744         -59.7414         41.4734       -0.0082698         149.746
0.522                  -0.325034        -132.642         -59.5296         39.1358         -59.5295          39.135      -0.00835623         149.679
0.523                  -0.335454        -133.132         -59.3162         36.8127         -59.3161          36.812      -0.00844325         149.612
0.524                   -0.34613        -133.625         -59.1017         34.5041         -59.1015         34.5036      -0.00853088         149.545
0.525                   -0.35707         -134.12         -58.8861          32.209         -58.8859         32.2087      -0.00861915         149.478
0.526                   -0.36828        -134.619         -58.6697         29.9265         -58.6695         29.9264      -0.00870806          149.41
0.527                  -0.379767         -135.12         -58.4527         27.6554         -58.4524         27.6556      -0.00879764         149.343
0.528                   -0.39154        -135.623         -58.2352         25.3948         -58.2348         25.3952      -0.00888789         149.275
0.529                  -0.403605         -136.13         -58.0173         23.1434         -58.0169         23.1441      -0.00897885         149.207
0.53                   -0.415969        -136.639         -57.7993         20.9004         -57.7988         20.9013      -0.00907052          149.14
0.531                   -0.42864         -137.15         -57.5812         18.6645         -57.5807         18.6657      -0.00916292         149.072
0.532                  -0.441625        -137.665         -57.3632         16.4347         -57.3626         16.4363      -0.00925608         149.004
0.533                  -0.454931        -138.182         -57.1455           14.21         -57.1448         14.2119         -0.00935         148.936
0.534                  -0.468565        -138.702          -56.928         11.9893         -56.9273         11.9915      -0.00944472         148.868
0.535                  -0.482533        -139.224         -56.7109         9.77151         -56.7102         9.77404      -0.00954023         148.799
0.536                  -0.496844        -139.749         -56.4944         7.55568         -56.4936         7.55856      -0.00963658         148.731
0.537                  -0.511504        -140.277         -56.2784         5.34079         -56.2776         5.34403      -0.00973377         148.663
0.538                  -0.526519        -140.807         -56.0632         3.12587         -56.0623         3.12946      -0.00983182         148.594
0.539                  -0.541897         -141.34         -55.8487        0.909957         -55.8477        0.913913      -0.00993076         148.525
0.54                   -0.557645        -141.876         -55.6351        -1.30787         -55.6341        -1.30355       -0.0100306         148.457
0.541                  -0.573769        -142.414         -55.4225        -3.52852         -55.4214        -3.52383       -0.0101314         148.388
0.542                  -0.590276        -142.954         -55.2108        -5.75287         -55.2097         -5.7478       -0.0102331         148.319
0.543                  -0.607172        -143.497         -55.0002        -7.98174          -54.999        -7.97631       -0.0103358          148.25
0.544                  -0.624464        -144.043         -54.7908         -10.216         -54.7896        -10.2102       -0.0104394         148.181
0.545                  -0.642159        -144.591         -54.5826        -12.4563         -54.5813        -12.4501       -0.0105441         148.111
0.546                  -0.660263        -145.142         -54.3757        -14.7035         -54.3743         -14.697       -0.0106498         148.042
0.547                  -0.678783        -145.695         -54.1701        -16.9584         -54.1687        -16.9515       -0.0107566         147.972
0.548                  -0.697724        -146.251         -53.9659        -19.2214         -53.9645        -19.2142       -0.0108645         147.903
0.549                  -0.717094        -146.809         -53.7632        -21.4935         -53.7617        -21.4858       -0.0109734         147.833
0.55                   -0.736897        -147.369         -53.5621         -23.775         -53.5605         -23.767       -0.0110835         147.763
0.551                  -0.757141        -147.932         -53.3625        -26.0666         -53.3609        -26.0583       -0.0111947         147.693
0.552                  -0.777832        -148.497         -53.1646        -28.3688          -53.163        -28.3602       -0.0113071         147.623
0.553                  -0.798975        -149.064         -52.9684        -30.6822         -52.9668        -30.6732       -0.0114207         147.553
0.554                  -0.820576        -149.634          -52.774        -33.0071         -52.7723        -32.9979       -0.0115355         147.482
0.555                  -0.842641        -150.207         -52.5814         -35.344         -52.5797        -35.3345       -0.0116516         147.412
0.556                  -0.865176        -150.781         -52.3907        -37.6932          -52.389        -37.6834       -0.0117689         147.341
0.557                  -0.888187        -151.358          -52.202        -40.0552         -52.2002        -40.0451       -0.0118875         147.271
0.558                  -0.911679        -151.937         -52.0153          -42.43         -52.0135        -42.4197       -0.0120075           147.2
0.559                  -0.935658        -152.518         -51.8307        -44.8181         -51.8288        -44.8075       -0.0121288         147.129
0.56                   -0.960129        -153.101         -51.6482        -47.2195         -51.6463        -47.2087       -0.0122514         147.058
0.561                  -0.985098        -153.687         -51.4679        -49.6345         -51.4659        -49.6234       -0.0123755         146.986
0.562                   -1.01057        -154.275         -51.2898         -52.063         -51.2878        -52.0518       -0.0125011         146.915
0.563                   -1.03655        -154.865          -51.114        -54.5053          -51.112        -54.4939        -0.012628         146.844
0.564                   -1.06304        -155.457         -50.9406        -56.9612         -50.9386        -56.9496       -0.0127565         146.772
0.565                   -1.09005        -156.051         -50.7696        -59.4308         -50.7675        -59.4191       -0.0128865           146.7
0.566                   -1.11759        -156.647          -50.601        -61.9139         -50.5989        -61.9021       -0.0130181         146.628
0.567                   -1.14565        -157.245         -50.4348        -64.4105         -50.4328        -64.3985       -0.0131512         146.556
0.568                   -1.17425        -157.846         -50.2713        -66.9203         -50.2691        -66.9082        -0.013286         146.484
0.569                   -1.20339        -158.448         -50.1102        -69.4431         -50.1081        -69.4309       -0.0134223         146.412
0.57                    -1.23307        -159.053         -49.9518        -71.9786         -49.9497        -71.9665       -0.0135604         146.339
0.571                   -1.26329        -159.659          -49.796        -74.5266         -49.7938        -74.5144       -0.0137002         146.267
0.572                   -1.29407        -160.267         -49.6428        -77.0867         -49.6407        -77.0745       -0.0138417         146.194
0.573                   -1.32541        -160.877         -49.4924        -79.6585         -49.4902        -79.6463        -0.013985         146.121
0.574                   -1.35731         -161.49         -49.3446        -82.2416         -49.3424        -82.2294       -0.0141301         146.048
0.575                   -1.38977        -162.104         -49.1995        -84.8354         -49.1973        -84.8233        -0.014277         145.975
0.576                   -1.42281         -162.72         -49.0571        -87.4396         -49.0549        -87.4276       -0.0144258         145.902
0.577                   -1.45642        -163.338         -48.9174        -90.0537         -48.9152        -90.0416       -0.0145765         145.828
0.578                   -1.49061        -163.957         -48.7804        -92.6769         -48.7782         -92.665       -0.0147292         145.755
0.579                   -1.52538        -164.579         -48.6461        -95.3088         -48.6439         -95.297       -0.0148839         145.681
0.58                    -1.56075        -165.202         -48.5145        -97.9489         -48.5123        -97.9372       -0.0150406         145.607
0.581                    -1.5967        -165.827         -48.3855        -100.596         -48.3833        -100.585       -0.0151993         145.533
0.582                   -1.63326        -166.454         -48.2591        -103.251          -48.257        -103.239       -0.0153601         145.459
0.583                   -1.67042        -167.083         -48.1353        -105.911         -48.1332          -105.9       -0.0155231         145.384
0.584                   -1.70818        -167.714          -48.014        -108.577         -48.0119        -108.566       -0.0156883          145.31
0.585                   -1.74655        -168.346         -47.8952        -111.249         -47.8931        -111.238       -0.0158557         145.235
0.586                   -1.78554         -168.98         -47.7788        -113.924         -47.7767        -113.913       -0.0160253          145.16
0.587                   -1.82515        -169.615         -47.6647        -116.603         -47.6627        -116.593       -0.0161973         145.085
0.588                   -1.86539        -170.253          -47.553        -119.285          -47.551        -119.275       -0.0163716          145.01
0.589                   -1.90625        -170.892         -47.4435        -121.969         -47.4416         -121.96       -0.0165483         144.934
0.59                    -1.94775        -171.533         -47.3361        -124.656         -47.3342        -124.646       -0.0167274         144.859
0.591                   -1.98989        -172.176         -47.2308        -127.343          -47.229        -127.334        -0.016909         144.783
0.592                   -2.03267         -172.82         -47.1275        -130.031         -47.1257        -130.022       -0.0170932         144.707
0.593                   -2.07609        -173.466         -47.0261        -132.719         -47.0243         -132.71       -0.0172799         144.631
0.594                   -2.12018        -174.113         -46.9265        -135.406         -46.9247        -135.398       -0.0174692         144.555
0.595                   -2.16492        -174.763         -46.8286        -138.093         -46.8269        -138.085       -0.0176613         144.478
0.596                   -2.21033        -175.414         -46.7323        -140.778         -46.7306         -140.77        -0.017856         144.401
0.597                    -2.2564        -176.066         -46.6375        -143.461         -46.6358        -143.453       -0.0180535         144.325
0.598                   -2.30315        -176.721         -46.5441        -146.141         -46.5425        -146.134       -0.0182539         144.247
0.599                   -2.35059        -177.377          -46.452        -148.819         -46.4505        -148.811       -0.0184572          144.17
0.6                     -2.39871        -178.035         -46.3611        -151.493         -46.3597        -151.486       -0.0186633         144.093
0.601                   -2.44753        -178.694         -46.2714        -154.164         -46.2699        -154.157       -0.0188725         144.015
0.602                   -2.49704        -179.355         -46.1826         -156.83         -46.1812        -156.824       -0.0190848         143.937
0.603                   -2.54727         179.982         -46.0948        -159.493         -46.0934        -159.487       -0.0193001         143.859
0.604                    -2.5982         179.317         -46.0077        -162.151         -46.0064        -162.145       -0.0195187         143.781
0.605                   -2.64987         178.651         -45.9214        -164.804         -45.9201        -164.799       -0.0197404         143.703
0.606                   -2.70226         177.983         -45.8356        -167.453         -45.8344        -167.447       -0.0199655         143.624
0.607                   -2.75539         177.313         -45.7504        -170.096         -45.7492        -170.091       -0.0201939         143.545
0.608                   -2.80926         176.642         -45.6656        -172.733         -45.6645        -172.729       -0.0204258         143.466
0.609                   -2.86389         175.968         -45.5811        -175.366         -45.5801        -175.361       -0.0206611         143.387
0.61                    -2.91929         175.293         -45.4969        -177.992         -45.4959        -177.988          -0.0209         143.307
0.611                   -2.97546         174.616         -45.4128         179.387         -45.4119         179.391       -0.0211426         143.228
0.612                   -3.03242         173.938         -45.3288         176.771         -45.3279         176.775       -0.0213888         143.148
0.613                   -3.09017         173.257         -45.2448         174.162          -45.244         174.165       -0.0216389         143.067
0.614                   -3.14872         172.575         -45.1608         171.558           -45.16         171.562       -0.0218928         142.987
0.615                    -3.2081          171.89         -45.0766         168.961         -45.0758         168.964       -0.0221506         142.906
0.616                   -3.26831         171.204         -44.9922         166.369         -44.9915         166.371       -0.0224124         142.825
0.617                   -3.32936         170.516         -44.9075         163.783         -44.9068         163.785       -0.0226784         142.744
0.618                   -3.39126         169.826         -44.8225         161.202         -44.8219         161.204       -0.0229485         142.663
0.619                   -3.45405         169.134         -44.7371         158.627         -44.7365         158.629       -0.0232229         142.581
0.62                    -3.51771          168.44         -44.6513         156.058         -44.6508          156.06       -0.0235017           142.5
0.621                   -3.58228         167.743          -44.565         153.495         -44.5645         153.496       -0.0237849         142.417
0.622                   -3.64778         167.045         -44.4782         150.936         -44.4778         150.938       -0.0240727         142.335
0.623                    -3.7142         166.345         -44.3908         148.383         -44.3904         148.384       -0.0243651         142.253
0.624                   -3.78159         165.643         -44.3029         145.835         -44.3025         145.836       -0.0246623          142.17
0.625                   -3.84995         164.938         -44.2143         143.292         -44.2139         143.293       -0.0249643         142.087
0.626                   -3.91931         164.231         -44.1251         140.754         -44.1247         140.755       -0.0252712         142.003
0.627                   -3.98968         163.523         -44.0351         138.221         -44.0348         138.221       -0.0255832         141.919
0.628                    -4.0611         162.811         -43.9445         135.692         -43.9443         135.692       -0.0259004         141.836
0.629                   -4.13358         162.098         -43.8532         133.167         -43.8529         133.168       -0.0262229         141.751
0.63                    -4.20715         161.383         -43.7611         130.647         -43.7609         130.647       -0.0265508         141.667
0.631                   -4.28184         160.665         -43.6683          128.13         -43.6681          128.13       -0.0268842         141.582
0.632                   -4.35767         159.944         -43.5748         125.617         -43.5746         125.617       -0.0272233         141.497
0.633                   -4.43468         159.222         -43.4805         123.108         -43.4804         123.108       -0.0275682         141.412
0.634                   -4.51289         158.497         -43.3855         120.602         -43.3853         120.602        -0.027919         141.326
0.635                   -4.59234          157.77         -43.2897         118.099         -43.2896         118.099       -0.0282759          141.24
0.636                   -4.67306          157.04         -43.1931         115.599         -43.1931         115.599        -0.028639         141.154
0.637                   -4.75509         156.308         -43.0959         113.102         -43.0958         113.101       -0.0290084         141.067
0.638                   -4.83846         155.574         -42.9979         110.607         -42.9978         110.606       -0.0293844          140.98
0.639                   -4.92321         154.837         -42.8992         108.114         -42.8992         108.113        -0.029767         140.893
0.64                     -5.0094         154.098         -42.7998         105.623         -42.7998         105.622       -0.0301565         140.806
0.641                   -5.09705         153.357         -42.6997         103.134         -42.6997         103.133        -0.030553         140.718
0.642                   -5.18621         152.613          -42.599         100.647          -42.599         100.646       -0.0309566          140.63
0.643                   -5.27694         151.867         -42.4976         98.1606         -42.4977         98.1598       -0.0313677         140.541
0.644                   -5.36929         151.119         -42.3957         95.6756         -42.3957         95.6748       -0.0317862         140.453
0.645                    -5.4633         150.368         -42.2931         93.1915         -42.2932         93.1906       -0.0322125         140.363
0.646                   -5.55903         149.615           -42.19          90.708           -42.19         90.7072       -0.0326468         140.274
0.647                   -5.65655         148.861         -42.0863         88.2251         -42.0864         88.2241       -0.0330892         140.184
0.648                    -5.7559         148.104         -41.9822         85.7423         -41.9823         85.7414       -0.0335399         140.094
0.649                   -5.85716         147.345         -41.8776         83.2597         -41.8777         83.2587       -0.0339992         140.003
0.65                    -5.96039         146.585         -41.7726         80.7768         -41.7726         80.7759       -0.0344673         139.912
0.651                   -6.06566         145.823         -41.6671         78.2937         -41.6672         78.2928       -0.0349444         139.821
0.652                   -6.17305         145.059         -41.5613           75.81         -41.5614         75.8091       -0.0354307         139.729
0.653                   -6.28263         144.294         -41.4552         73.3257         -41.4553         73.3248       -0.0359265         139.637
0.654                   -6.39447         143.528         -41.3488         70.8405         -41.3489         70.8396        -0.036432         139.545
0.655                   -6.50867         142.761         -41.2421         68.3542         -41.2422         68.3534       -0.0369474         139.452
0.656                   -6.62531         141.994         -41.1353         65.8669         -41.1354          65.866       -0.0374731         139.359
0.657                   -6.74448         141.226         -41.0282         63.3782         -41.0283         63.3774       -0.0380092         139.265
0.658                   -6.86626         140.458         -40.9211         60.8881         -40.9212         60.8873       -0.0385561         139.171
0.659                   -6.99077         139.691         -40.8138         58.3965         -40.8139         58.3957       -0.0391138         139.077
0.66                    -7.11809         138.925         -40.7065         55.9032         -40.7066         55.9024       -0.0396829         138.982
0.661                   -7.24833         138.159         -40.5992         53.4082         -40.5993         53.4074       -0.0402633         138.887
0.662                   -7.38161         137.396          -40.492         50.9113         -40.4921         50.9106       -0.0408556         138.791
0.663                   -7.51802         136.635         -40.3848         48.4126         -40.3849         48.4119       -0.0414598         138.695
0.664                   -7.65768         135.876         -40.2777         45.9119         -40.2778         45.9113       -0.0420762         138.598
0.665                   -7.80071         135.122         -40.1708         43.4093         -40.1709         43.4087       -0.0427051         138.501
0.666                   -7.94723         134.372         -40.0641         40.9046         -40.0642          40.904       -0.0433467         138.404
0.667                   -8.09736         133.627         -39.9576         38.3979         -39.9577         38.3973       -0.0440013         138.306
0.668                   -8.25122         132.888         -39.8514         35.8891         -39.8515         35.8886        -0.044669         138.208
0.669                   -8.40894         132.157         -39.7455         33.3784         -39.7456         33.3779       -0.0453501         138.109
0.67                    -8.57063         131.434         -39.6399         30.8656           -39.64         30.8652       -0.0460448          138.01
0.671                   -8.73643         130.721         -39.5348         28.3509         -39.5349         28.3505       -0.0467532          137.91
0.672                   -8.90646         130.018           -39.43         25.8343         -39.4301         25.8339       -0.0474755          137.81
0.673                   -9.08084         129.328         -39.3257         23.3159         -39.3258         23.3155       -0.0482119         137.709
0.674                   -9.25969         128.652         -39.2219         20.7957          -39.222         20.7953       -0.0489625         137.608
0.675                   -9.44312         127.992         -39.1186         18.2738         -39.1186         18.2735       -0.0497274         137.506
0.676                   -9.63124         127.349         -39.0158         15.7505         -39.0158         15.7502       -0.0505068         137.404
0.677                   -9.82414         126.726         -38.9135         13.2256         -38.9136         13.2254       -0.0513006         137.301
0.678                   -10.0219         126.125         -38.8119         10.6995         -38.8119         10.6993        -0.052109         137.198
0.679                   -10.2246         125.549         -38.7108         8.17227         -38.7109         8.17204       -0.0529321         137.094
0.68                    -10.4323         124.999         -38.6104           5.644         -38.6104         5.64379       -0.0537698         136.989
0.681                   -10.6451          124.48         -38.5106         3.11489         -38.5106          3.1147       -0.0546222         136.885
0.682                   -10.8628         123.993         -38.4115        0.585114         -38.4115        0.584935       -0.0554893         136.779
0.683                   -11.0856         123.542          -38.313        -1.94515          -38.313        -1.94532       -0.0563711         136.673
0.684                   -11.3133         123.131         -38.2152        -4.47572         -38.2152        -4.47588       -0.0572676         136.566
0.685                   -11.5459         122.763          -38.118         -7.0064          -38.118        -7.00655       -0.0581788         136.459
0.686                   -11.7832         122.442         -38.0216        -9.53699         -38.0216        -9.53714       -0.0591048         136.351
0.687                   -12.0249         122.172         -37.9258        -12.0673         -37.9258        -12.0674       -0.0600456         136.243
0.688                   -12.2709         121.958         -37.8307        -14.5971         -37.8307        -14.5972       -0.0610011         136.134
0.689                   -12.5208         121.803         -37.7363        -17.1262         -37.7363        -17.1263       -0.0619715         136.024
0.69                    -12.7741         121.713         -37.6425        -19.6543         -37.6425        -19.6545       -0.0629569         135.914
0.691                   -13.0303         121.692         -37.5494        -22.1814         -37.5494        -22.1815       -0.0639572         135.803
0.692                   -13.2889         121.743          -37.457        -24.7071         -37.4569        -24.7072       -0.0649728         135.691
0.693                    -13.549         121.873         -37.3652        -27.2312         -37.3651        -27.2313       -0.0660037         135.579
0.694                   -13.8098         122.085          -37.274        -29.7536         -37.2739        -29.7537       -0.0670503         135.466
0.695                   -14.0703         122.383         -37.1834         -32.274         -37.1833        -32.2741       -0.0681126         135.352
0.696                   -14.3294          122.77         -37.0934        -34.7922         -37.0933        -34.7924       -0.0691912         135.238
0.697                   -14.5858          123.25         -37.0039        -37.3081         -37.0038        -37.3083       -0.0702862         135.122