! TOUCHSTONE file generated by CST MICROWAVE STUDIO
! Date and time: Mon Sep 28 15:35:55 2020
! Project name: Scenario_1_Free_SPace.cst
! Parameters = {dx1=970; L_HA=400; MT=2.54; Rad_Dielectric=30; Rad_Lower=7.3; Rad_Upper=30; a_HA=580; a_WG=246; b_HA=500; b_WG=121; c_HA=0; c_WG=187; d_feed=85; h_feed=15; h_lower=18; h_upper=40}
! Header version: 2018
! Port assignment regex: !\s*Touchstone port\s*([0-9]+)\s*=\s*(CST MWS port|CST DS port)\s*([0-9]+|Zmin|Zmax)\s*\(\"(.*)\"\)(\s*mode\s*([0-9]+))?.*
! Touchstone port assignment:
! Touchstone port 1 = CST MWS port 1 ("")
! Touchstone port 2 = CST MWS port 2 ("")
# GHz S DB R 50
0.5                    -0.145703        -122.583         -63.3577         85.4478         -63.3577         85.4478      -0.00661403          151.12
0.501                  -0.151134        -123.027         -63.2039         82.9976         -63.2039         82.9985      -0.00668678         151.054
0.502                   -0.15676        -123.472         -63.0446         80.5529         -63.0445         80.5547      -0.00676019         150.989
0.503                  -0.162584        -123.919         -62.8799         78.1148         -62.8798         78.1173      -0.00683426         150.923
0.504                  -0.168611        -124.369         -62.7101         75.6841         -62.7099         75.6873      -0.00690901         150.858
0.505                  -0.174842         -124.82         -62.5354         73.2615         -62.5352         73.2654      -0.00698444         150.792
0.506                  -0.181281        -125.273          -62.356         70.8476         -62.3557         70.8521      -0.00706056         150.726
0.507                  -0.187932        -125.728         -62.1721         68.4429         -62.1718         68.4479      -0.00713736         150.661
0.508                  -0.194797        -126.186         -61.9839         66.0477         -61.9836         66.0532      -0.00721486         150.595
0.509                  -0.201881        -126.645         -61.7917         63.6624         -61.7914         63.6683      -0.00729306         150.529
0.51                   -0.209186        -127.106         -61.5957         61.2869         -61.5954         61.2932      -0.00737196         150.463
0.511                  -0.216716         -127.57         -61.3961         58.9214         -61.3957         58.9279      -0.00745158         150.396
0.512                  -0.224474        -128.035         -61.1931         56.5658         -61.1927         56.5725      -0.00753192          150.33
0.513                  -0.232465        -128.503          -60.987         54.2198         -60.9865         54.2267      -0.00761299         150.264
0.514                  -0.240691        -128.972         -60.7778         51.8832         -60.7774         51.8902      -0.00769479         150.198
0.515                  -0.249157        -129.444          -60.566         49.5556         -60.5655         49.5626      -0.00777732         150.131
0.516                  -0.257866        -129.918         -60.3515         47.2366          -60.351         47.2437       -0.0078606         150.065
0.517                  -0.266821        -130.393         -60.1347         44.9257         -60.1341         44.9327      -0.00794464         149.998
0.518                  -0.276027        -130.871         -59.9156         42.6223          -59.915         42.6293      -0.00802943         149.931
0.519                  -0.285487        -131.351         -59.6946         40.3259         -59.6939         40.3327      -0.00811499         149.865
0.52                   -0.295205        -131.833         -59.4717         38.0357          -59.471         38.0423      -0.00820133         149.798
0.521                  -0.305186        -132.318         -59.2471          35.751         -59.2464         35.7574      -0.00828844         149.731
0.522                  -0.315432        -132.804          -59.021         33.4712         -59.0202         33.4773      -0.00837635         149.664
0.523                  -0.325948        -133.292         -58.7935         31.1953         -58.7927         31.2011      -0.00846505         149.597
0.524                  -0.336738        -133.783         -58.5648         28.9225         -58.5639          28.928      -0.00855456         149.529
0.525                  -0.347806        -134.276         -58.3351         26.6521         -58.3341         26.6572      -0.00864488         149.462
0.526                  -0.359156        -134.771         -58.1043         24.3832         -58.1033         24.3879      -0.00873603         149.395
0.527                  -0.370793        -135.268         -57.8728         22.1149         -57.8716         22.1191      -0.00882801         149.327
0.528                  -0.382719        -135.767         -57.6405         19.8463         -57.6393         19.8501      -0.00892083         149.259
0.529                  -0.394941        -136.268         -57.4077         17.5765         -57.4064         17.5798       -0.0090145         149.192
0.53                   -0.407461        -136.772         -57.1745         15.3047         -57.1731         15.3074      -0.00910902         149.124
0.531                  -0.420284        -137.277         -56.9409         13.0299         -56.9394          13.032      -0.00920442         149.056
0.532                  -0.433415        -137.785         -56.7071         10.7512         -56.7055         10.7528      -0.00930069         148.988
0.533                  -0.446858        -138.295         -56.4732          8.4678         -56.4716         8.46871      -0.00939785          148.92
0.534                  -0.460617        -138.807         -56.2393         6.17874         -56.2376           6.179      -0.00949591         148.852
0.535                  -0.474697        -139.322         -56.0056         3.88318         -56.0037         3.88276      -0.00959488         148.784
0.536                  -0.489102        -139.838         -55.7721         1.58026         -55.7701         1.57913      -0.00969477         148.715
0.537                  -0.503837        -140.357         -55.5389       -0.730872         -55.5369       -0.732728      -0.00979559         148.647
0.538                  -0.518906        -140.878         -55.3062        -3.05103         -55.3041        -3.05364      -0.00989735         148.578
0.539                  -0.534314        -141.401         -55.0741        -5.38102         -55.0719        -5.38441       -0.0100001         148.509
0.54                   -0.550066        -141.927         -54.8426        -7.72162         -54.8403        -7.72581       -0.0101037         148.441
0.541                  -0.566167        -142.455          -54.612        -10.0736         -54.6096        -10.0786       -0.0102084         148.372
0.542                   -0.58262        -142.984         -54.3822        -12.4376         -54.3797        -12.4435        -0.010314         148.303
0.543                  -0.599431        -143.516         -54.1535        -14.8144         -54.1509        -14.8211       -0.0104207         148.234
0.544                  -0.616605        -144.051          -53.926        -17.2046         -53.9232        -17.2122       -0.0105284         148.164
0.545                  -0.634146        -144.587         -53.6997        -19.6088         -53.6969        -19.6174       -0.0106371         148.095
0.546                   -0.65206        -145.126         -53.4748        -22.0277         -53.4719        -22.0371       -0.0107468         148.026
0.547                  -0.670351        -145.667         -53.2514        -24.4616         -53.2484         -24.472       -0.0108576         147.956
0.548                  -0.689024         -146.21         -53.0296        -26.9111         -53.0265        -26.9225       -0.0109695         147.886
0.549                  -0.708084        -146.755         -52.8096        -29.3767         -52.8065         -29.389       -0.0110824         147.817
0.55                   -0.727537        -147.303         -52.5916        -31.8586         -52.5883        -31.8718       -0.0111965         147.747
0.551                  -0.747387        -147.853         -52.3755        -34.3571         -52.3722        -34.3714       -0.0113117         147.677
0.552                  -0.767639        -148.405         -52.1616        -36.8726         -52.1582        -36.8879        -0.011428         147.607
0.553                  -0.788299        -148.959         -51.9501        -39.4053         -51.9466        -39.4216       -0.0115454         147.537
0.554                  -0.809372        -149.516         -51.7409        -41.9551         -51.7374        -41.9724        -0.011664         147.466
0.555                  -0.830862        -150.075         -51.5344        -44.5221         -51.5308        -44.5405       -0.0117839         147.396
0.556                  -0.852776        -150.636         -51.3305        -47.1064         -51.3268        -47.1258       -0.0119049         147.325
0.557                  -0.875118        -151.199         -51.1295        -49.7078         -51.1258        -49.7282       -0.0120271         147.254
0.558                  -0.897894        -151.764         -50.9314        -52.3262         -50.9277        -52.3476       -0.0121506         147.184
0.559                  -0.921108        -152.332         -50.7365        -54.9611         -50.7327        -54.9836       -0.0122753         147.113
0.56                   -0.944768        -152.902         -50.5447        -57.6125         -50.5409        -57.6359       -0.0124013         147.041
0.561                  -0.968877        -153.474         -50.3563        -60.2797         -50.3525        -60.3041       -0.0125286          146.97
0.562                  -0.993441        -154.048         -50.1714        -62.9623         -50.1675        -62.9877       -0.0126572         146.899
0.563                   -1.01847        -154.625           -49.99        -65.6598         -49.9862        -65.6862       -0.0127872         146.827
0.564                   -1.04396        -155.204         -49.8123        -68.3714         -49.8085        -68.3988       -0.0129185         146.756
0.565                   -1.06992        -155.785         -49.6384        -71.0966         -49.6345        -71.1248       -0.0130512         146.684
0.566                   -1.09636        -156.368         -49.4683        -73.8344         -49.4644        -73.8635       -0.0131853         146.612
0.567                   -1.12329        -156.954         -49.3021        -76.5841         -49.2983         -76.614       -0.0133209          146.54
0.568                    -1.1507        -157.542         -49.1399        -79.3447         -49.1361        -79.3755       -0.0134579         146.468
0.569                   -1.17861        -158.131         -48.9817        -82.1153          -48.978        -82.1468       -0.0135964         146.396
0.57                    -1.20702        -158.724         -48.8276        -84.8949         -48.8239        -84.9271       -0.0137364         146.323
0.571                   -1.23593        -159.318         -48.6776        -87.6824          -48.674        -87.7154       -0.0138779         146.251
0.572                   -1.26536        -159.915         -48.5317        -90.4768         -48.5281        -90.5104        -0.014021         146.178
0.573                    -1.2953        -160.513         -48.3899         -93.277         -48.3864        -93.3112       -0.0141656         146.105
0.574                   -1.32577        -161.115         -48.2522        -96.0818         -48.2488        -96.1165       -0.0143119         146.032
0.575                   -1.35677        -161.718         -48.1186        -98.8902         -48.1153        -98.9254       -0.0144598         145.959
0.576                    -1.3883        -162.323          -47.989        -101.701         -47.9858        -101.737       -0.0146094         145.886
0.577                   -1.42038        -162.931         -47.8635        -104.513         -47.8603        -104.549       -0.0147607         145.812
0.578                   -1.45301        -163.541         -47.7418        -107.326         -47.7387        -107.362       -0.0149138         145.739
0.579                   -1.48619        -164.153         -47.6239        -110.137         -47.6209        -110.174       -0.0150686         145.665
0.58                    -1.51993        -164.767         -47.5098        -112.947         -47.5069        -112.984       -0.0152252         145.591
0.581                   -1.55424        -165.384         -47.3994        -115.754         -47.3966        -115.791       -0.0153836         145.517
0.582                   -1.58912        -166.002         -47.2924        -118.557         -47.2897        -118.594        -0.015544         145.443
0.583                   -1.62458        -166.623         -47.1889        -121.355         -47.1863        -121.392       -0.0157062         145.368
0.584                   -1.66063        -167.246         -47.0886        -124.148         -47.0861        -124.185       -0.0158704         145.294
0.585                   -1.69728        -167.872         -46.9915        -126.934         -46.9891        -126.971       -0.0160366         145.219
0.586                   -1.73452        -168.499         -46.8974        -129.714         -46.8951         -129.75       -0.0162049         145.144
0.587                   -1.77237        -169.129         -46.8061        -132.486         -46.8039        -132.522       -0.0163752         145.069
0.588                   -1.81084        -169.761         -46.7175        -135.249         -46.7154        -135.285       -0.0165476         144.994
0.589                   -1.84993        -170.395         -46.6314        -138.003         -46.6294        -138.039       -0.0167222         144.918
0.59                    -1.88965        -171.031         -46.5477        -140.748         -46.5458        -140.783        -0.016899         144.843
0.591                      -1.93        -171.669         -46.4662        -143.484         -46.4644        -143.518       -0.0170781         144.767
0.592                     -1.971         -172.31         -46.3867        -146.209         -46.3851        -146.243       -0.0172594         144.691
0.593                   -2.01265        -172.953         -46.3091        -148.924         -46.3076        -148.957       -0.0174432         144.615
0.594                   -2.05496        -173.598         -46.2333        -151.628         -46.2318        -151.661       -0.0176293         144.539
0.595                   -2.09794        -174.246         -46.1589        -154.321         -46.1575        -154.354       -0.0178179         144.462
0.596                   -2.14159        -174.895          -46.086        -157.004         -46.0847        -157.035       -0.0180091         144.386
0.597                   -2.18592        -175.547         -46.0143        -159.675         -46.0131        -159.706       -0.0182028         144.309
0.598                   -2.23095        -176.201         -45.9437        -162.336         -45.9425        -162.366       -0.0183991         144.232
0.599                   -2.27668        -176.857          -45.874        -164.986          -45.873        -165.015       -0.0185982         144.154
0.6                     -2.32312        -177.516         -45.8052        -167.625         -45.8042        -167.654          -0.0188         144.077
0.601                   -2.37028        -178.177         -45.7369        -170.253          -45.736        -170.281       -0.0190047         143.999
0.602                   -2.41817         -178.84         -45.6693         -172.87         -45.6684        -172.898       -0.0192122         143.921
0.603                    -2.4668        -179.505          -45.602        -175.478         -45.6012        -175.505       -0.0194227         143.843
0.604                   -2.51617         179.828         -45.5349        -178.075         -45.5342        -178.101       -0.0196363         143.765
0.605                    -2.5663         179.158          -45.468         179.338         -45.4674         179.312       -0.0198529         143.687
0.606                   -2.61721         178.486         -45.4012          176.76         -45.4006         176.735       -0.0200728         143.608
0.607                   -2.66889         177.811         -45.3343         174.191         -45.3337         174.168       -0.0202959         143.529
0.608                   -2.72137         177.135         -45.2672         171.632         -45.2667         171.609       -0.0205223          143.45
0.609                   -2.77465         176.456         -45.1999         169.081         -45.1994         169.059       -0.0207522         143.371
0.61                    -2.82874         175.774         -45.1322         166.538         -45.1318         166.517       -0.0209856         143.291
0.611                   -2.88366         175.091         -45.0641         164.004         -45.0637         163.983       -0.0212226         143.211
0.612                   -2.93943         174.405         -44.9954         161.477         -44.9951         161.457       -0.0214633         143.132
0.613                   -2.99605         173.716         -44.9262         158.957         -44.9259         158.938       -0.0217078         143.051
0.614                   -3.05354         173.025         -44.8563         156.444          -44.856         156.426       -0.0219562         142.971
0.615                   -3.11191         172.332         -44.7857         153.938         -44.7855          153.92       -0.0222085          142.89
0.616                   -3.17118         171.636         -44.7144         151.437         -44.7141         151.421        -0.022465         142.809
0.617                   -3.23136         170.938         -44.6422         148.942          -44.642         148.927       -0.0227256         142.728
0.618                   -3.29248         170.238         -44.5691         146.453         -44.5689         146.438       -0.0229906         142.647
0.619                   -3.35455         169.535         -44.4951         143.968          -44.495         143.954       -0.0232599         142.565
0.62                    -3.41758         168.829         -44.4202         141.488         -44.4201         141.475       -0.0235338         142.483
0.621                    -3.4816         168.121         -44.3443         139.012         -44.3442             139       -0.0238124         142.401
0.622                   -3.54662          167.41         -44.2674          136.54         -44.2673         136.528       -0.0240957         142.319
0.623                   -3.61267         166.697         -44.1894         134.071         -44.1893          134.06       -0.0243839         142.236
0.624                   -3.67976         165.981         -44.1104         131.606         -44.1103         131.595       -0.0246771         142.153
0.625                   -3.74792         165.263         -44.0303         129.143         -44.0303         129.132       -0.0249755          142.07
0.626                   -3.81718         164.542         -43.9491         126.682         -43.9491         126.672       -0.0252792         141.986
0.627                   -3.88756         163.819         -43.8669         124.223         -43.8669         124.214       -0.0255883         141.903
0.628                   -3.95908         163.093         -43.7835         121.765         -43.7835         121.757       -0.0259029         141.819
0.629                   -4.03177         162.364         -43.6991         119.309         -43.6991         119.301       -0.0262233         141.734
0.63                    -4.10566         161.632         -43.6136         116.854         -43.6136         116.847       -0.0265496          141.65
0.631                   -4.18078         160.898         -43.5269         114.399          -43.527         114.393       -0.0268818         141.565
0.632                   -4.25716         160.161         -43.4392         111.945         -43.4393         111.939       -0.0272203          141.48
0.633                   -4.33484         159.422         -43.3504         109.491         -43.3505         109.485        -0.027565         141.395
0.634                   -4.41384         158.679         -43.2606         107.036         -43.2607         107.031       -0.0279162         141.309
0.635                   -4.49421         157.934         -43.1698         104.581         -43.1698         104.576       -0.0282741         141.223
0.636                   -4.57598         157.186         -43.0779         102.124          -43.078          102.12       -0.0286388         141.136
0.637                    -4.6592         156.436         -42.9851         99.6671         -42.9851         99.6632       -0.0290105          141.05
0.638                   -4.74391         155.683         -42.8912         97.2084         -42.8913         97.2049       -0.0293893         140.963
0.639                   -4.83014         154.927         -42.7965          94.748         -42.7966         94.7449       -0.0297754         140.876
0.64                    -4.91796         154.169         -42.7008         92.2858         -42.7009         92.2831        -0.030169         140.788
0.641                    -5.0074         153.408         -42.6043         89.8215         -42.6044         89.8191       -0.0305703           140.7
0.642                   -5.09852         152.644          -42.507         87.3549         -42.5071         87.3528       -0.0309795         140.612
0.643                   -5.19137         151.878         -42.4088         84.8858         -42.4089          84.884       -0.0313966         140.524
0.644                   -5.28602         151.109         -42.3099          82.414           -42.31         82.4125        -0.031822         140.435
0.645                   -5.38251         150.338         -42.2103         79.9394         -42.2104         79.9382       -0.0322557         140.345
0.646                   -5.48092         149.565           -42.11         77.4618         -42.1101         77.4608        -0.032698         140.256
0.647                   -5.58132         148.789         -42.0091          74.981         -42.0092         74.9803        -0.033149         140.166
0.648                   -5.68376         148.011         -41.9076          72.497         -41.9077         72.4965       -0.0336089         140.076
0.649                   -5.78832         147.232         -41.8056         70.0096         -41.8057         70.0093       -0.0340779         139.985
0.65                    -5.89509          146.45         -41.7031         67.5187         -41.7031         67.5187       -0.0345561         139.894
0.651                   -6.00413         145.667         -41.6001         65.0243         -41.6002         65.0244       -0.0350437         139.803
0.652                   -6.11554         144.883         -41.4967         62.5262         -41.4968         62.5265       -0.0355409         139.711
0.653                   -6.22939         144.097         -41.3931         60.0245         -41.3931         60.0249       -0.0360479         139.619
0.654                   -6.34579         143.311         -41.2891         57.5191         -41.2891         57.5196       -0.0365647         139.527
0.655                   -6.46483         142.524         -41.1849         55.0099         -41.1849         55.0106       -0.0370916         139.434
0.656                   -6.58661         141.737         -41.0805          52.497         -41.0805         52.4978       -0.0376287         139.341
0.657                   -6.71122          140.95         -40.9759         49.9804          -40.976         49.9813       -0.0381762         139.247
0.658                   -6.83878         140.164         -40.8713         47.4601         -40.8714         47.4611       -0.0387341         139.153
0.659                    -6.9694         139.379         -40.7667         44.9362         -40.7667         44.9372       -0.0393026         139.059
0.66                    -7.10319         138.596         -40.6621         42.4087         -40.6621         42.4098       -0.0398818         138.964
0.661                   -7.24026         137.815         -40.5575         39.8777         -40.5576         39.8788       -0.0404719         138.869
0.662                   -7.38075         137.037         -40.4531         37.3433         -40.4531         37.3445        -0.041073         138.773
0.663                   -7.52477         136.263         -40.3488         34.8057         -40.3489         34.8069       -0.0416851         138.677
0.664                   -7.67245         135.494         -40.2448         32.2649         -40.2448         32.2661       -0.0423084         138.581
0.665                   -7.82391         134.731          -40.141         29.7211          -40.141         29.7223        -0.042943         138.484
0.666                   -7.97929         133.974         -40.0375         27.1744         -40.0375         27.1756       -0.0435889         138.386
0.667                   -8.13871         133.225         -39.9344          24.625         -39.9344         24.6262       -0.0442462         138.289
0.668                    -8.3023         132.486         -39.8316         22.0732         -39.8316         22.0744       -0.0449149          138.19
0.669                   -8.47018         131.757         -39.7293         19.5191         -39.7293         19.5202       -0.0455953         138.092
0.67                    -8.64248          131.04         -39.6274         16.9629         -39.6274          16.964       -0.0462873         137.992
0.671                    -8.8193         130.337          -39.526         14.4049          -39.526         14.4059       -0.0469909         137.893
0.672                   -9.00076          129.65         -39.4252         11.8452         -39.4252         11.8462       -0.0477063         137.793
0.673                   -9.18695         128.981         -39.3249         9.28417         -39.3249         9.28514       -0.0484335         137.692
0.674                   -9.37796         128.331         -39.2252         6.72201         -39.2252         6.72293       -0.0491725         137.591
0.675                   -9.57386         127.704          -39.126           4.159          -39.126         4.15986       -0.0499234         137.489
0.676                   -9.77469         127.102         -39.0275         1.59538         -39.0275         1.59619       -0.0506864         137.387
0.677                   -9.98048         126.527         -38.9297       -0.968556         -38.9297       -0.967811       -0.0514613         137.285
0.678                   -10.1912         125.983         -38.8325        -3.53254         -38.8325        -3.53186       -0.0522484         137.181
0.679                   -10.4069         125.473         -38.7359        -6.09631         -38.7359        -6.09569       -0.0530477         137.078
0.68                    -10.6274             125           -38.64        -8.65956           -38.64        -8.65901       -0.0538593         136.973
0.681                   -10.8526         124.567         -38.5448         -11.222         -38.5448        -11.2215       -0.0546833         136.869
0.682                   -11.0824         124.178         -38.4503        -13.7834         -38.4503         -13.783       -0.0555198         136.763
0.683                   -11.3165         123.837         -38.3564        -16.3435         -38.3564        -16.3432        -0.056369         136.657
0.684                   -11.5547         123.548         -38.2632         -18.902         -38.2632        -18.9017        -0.057231         136.551
0.685                   -11.7965         123.314         -38.1707        -21.4586         -38.1707        -21.4584        -0.058106         136.443
0.686                   -12.0415         123.141         -38.0788         -24.013         -38.0788        -24.0129       -0.0589943         136.336
0.687                   -12.2893         123.031         -37.9875        -26.5651         -37.9875         -26.565       -0.0598959         136.227
0.688                    -12.539         122.989         -37.8969        -29.1146         -37.8969        -29.1145       -0.0608113         136.118
0.689                   -12.7901         123.018         -37.8068        -31.6612         -37.8068        -31.6612       -0.0617406         136.008
0.69                    -13.0417         123.121         -37.7173        -34.2047         -37.7174        -34.2048       -0.0626842         135.898
0.691                   -13.2929         123.302         -37.6284        -36.7449         -37.6284         -36.745       -0.0636425         135.787
0.692                   -13.5426         123.563           -37.54        -39.2816           -37.54        -39.2818       -0.0646158         135.675
0.693                   -13.7897         123.904         -37.4521        -41.8147         -37.4521        -41.8149       -0.0656045         135.562
0.694                    -14.033         124.328         -37.3646        -44.3438         -37.3646        -44.3441       -0.0666092         135.449
0.695                   -14.2712         124.834         -37.2776         -46.869         -37.2776        -46.8693       -0.0676302         135.335
0.696                    -14.503          125.42         -37.1909          -49.39         -37.1909        -49.3904       -0.0686682         135.221
0.697                    -14.727         126.084         -37.1046        -51.9068         -37.1046        -51.9072       -0.0697238         135.105