! TOUCHSTONE file generated by CST MICROWAVE STUDIO
! Date and time: Mon Sep 28 15:36:08 2020
! Project name: Scenario_1_Free_SPace.cst
! Parameters = {dx1=987.3; L_HA=400; MT=2.54; Rad_Dielectric=30; Rad_Lower=7.3; Rad_Upper=30; a_HA=580; a_WG=246; b_HA=500; b_WG=121; c_HA=0; c_WG=187; d_feed=85; h_feed=15; h_lower=18; h_upper=40}
! Header version: 2018
! Port assignment regex: !\s*Touchstone port\s*([0-9]+)\s*=\s*(CST MWS port|CST DS port)\s*([0-9]+|Zmin|Zmax)\s*\(\"(.*)\"\)(\s*mode\s*([0-9]+))?.*
! Touchstone port assignment:
! Touchstone port 1 = CST MWS port 1 ("")
! Touchstone port 2 = CST MWS port 2 ("")
# GHz S DB R 50
0.5                    -0.146023        -122.608         -63.3849         75.8195         -63.3849         75.8195      -0.00663346          151.13
0.501                  -0.148052        -123.028         -63.3236         73.1744         -63.3234         73.1739      -0.00668292         151.064
0.502                   -0.15032        -123.452         -63.2552          70.514         -63.2548         70.5129      -0.00673332         150.999
0.503                  -0.152832        -123.878         -63.1796         67.8404          -63.179         67.8389      -0.00678469         150.934
0.504                  -0.155595        -124.307         -63.0969          65.156         -63.0962         65.1542      -0.00683702         150.868
0.505                  -0.158614        -124.739         -63.0071         62.4631         -63.0062          62.461      -0.00689033         150.803
0.506                  -0.161893        -125.174         -62.9103         59.7639         -62.9092         59.7617      -0.00694462         150.737
0.507                   -0.16544        -125.612         -62.8065         57.0606         -62.8052         57.0583       -0.0069999         150.671
0.508                  -0.169258        -126.053         -62.6959         54.3553         -62.6944          54.353      -0.00705619         150.605
0.509                  -0.173354        -126.496         -62.5786         51.6501          -62.577         51.6478      -0.00711349          150.54
0.51                   -0.177733        -126.943         -62.4548         48.9468          -62.453         48.9446      -0.00717181         150.474
0.511                  -0.182402        -127.392         -62.3246         46.2473         -62.3227         46.2453      -0.00723116         150.407
0.512                  -0.187364        -127.845         -62.1884         43.5532         -62.1863         43.5514      -0.00729155         150.341
0.513                  -0.192627          -128.3         -62.0462         40.8661          -62.044         40.8644      -0.00735299         150.275
0.514                  -0.198196        -128.758         -61.8985         38.1872         -61.8961         38.1858      -0.00741549         150.209
0.515                  -0.204077        -129.219         -61.7453         35.5178         -61.7429         35.5167      -0.00747905         150.142
0.516                  -0.210275        -129.683         -61.5871         32.8589         -61.5846         32.8581       -0.0075437         150.076
0.517                  -0.216796         -130.15          -61.424         30.2113         -61.4214          30.211      -0.00760943         150.009
0.518                  -0.223646        -130.619         -61.2564         27.5759         -61.2537         27.5759      -0.00767626         149.943
0.519                   -0.23083        -131.092         -61.0845         24.9531         -61.0817         24.9535      -0.00774421         149.876
0.52                   -0.238355        -131.567         -60.9087         22.3434         -60.9058         22.3441      -0.00781327         149.809
0.521                  -0.246225        -132.046         -60.7291          19.747         -60.7262         19.7481      -0.00788347         149.742
0.522                  -0.254447        -132.527         -60.5461         17.1641         -60.5432         17.1656       -0.0079548         149.675
0.523                  -0.263027        -133.011         -60.3599         14.5947          -60.357         14.5966      -0.00802729         149.608
0.524                  -0.271969        -133.497         -60.1709         12.0388         -60.1679          12.041      -0.00810095         149.541
0.525                   -0.28128        -133.987         -59.9792         9.49606         -59.9762         9.49866      -0.00817579         149.474
0.526                  -0.290966        -134.479         -59.7852         6.96628         -59.7822         6.96921      -0.00825181         149.406
0.527                  -0.301031        -134.975          -59.589         4.44906          -59.586         4.45231      -0.00832903         149.339
0.528                  -0.311482        -135.473         -59.3908         1.94397         -59.3879         1.94752      -0.00840747         149.271
0.529                  -0.322323        -135.973          -59.191       -0.549516         -59.1881        -0.54569      -0.00848713         149.203
0.53                   -0.333562        -136.477         -58.9897        -3.03195         -58.9868        -3.02787      -0.00856803         149.136
0.531                  -0.345202        -136.983         -58.7872        -5.50396         -58.7843        -5.49965      -0.00865019         149.068
0.532                  -0.357249        -137.492         -58.5835        -7.96619         -58.5806        -7.96167      -0.00873361             149
0.533                  -0.369709        -138.004          -58.379        -10.4193         -58.3761        -10.4146       -0.0088183         148.932
0.534                  -0.382587        -138.518         -58.1737        -12.8641         -58.1709        -12.8592      -0.00890429         148.864
0.535                  -0.395888        -139.035         -57.9678        -15.3011         -57.9651        -15.2961      -0.00899158         148.795
0.536                  -0.409618        -139.555         -57.7615        -17.7313         -57.7589        -17.7262      -0.00908019         148.727
0.537                   -0.42378        -140.077          -57.555        -20.1553         -57.5524        -20.1501      -0.00917014         148.659
0.538                  -0.438382        -140.602         -57.3484        -22.5738         -57.3458        -22.5686      -0.00926143          148.59
0.539                  -0.453426         -141.13         -57.1417        -24.9877         -57.1392        -24.9824      -0.00935409         148.521
0.54                   -0.468918         -141.66         -56.9352        -27.3976         -56.9327        -27.3923      -0.00944812         148.453
0.541                  -0.484864        -142.193         -56.7289        -29.8043         -56.7266         -29.799      -0.00954355         148.384
0.542                  -0.501267        -142.728          -56.523        -32.2085         -56.5207        -32.2032      -0.00964038         148.315
0.543                  -0.518132        -143.266         -56.3176         -34.611         -56.3154        -34.6057      -0.00973865         148.246
0.544                  -0.535463        -143.806         -56.1127        -37.0122         -56.1106         -37.007      -0.00983835         148.176
0.545                  -0.553266        -144.349         -55.9085        -39.4131         -55.9065         -39.408      -0.00993951         148.107
0.546                  -0.571544        -144.894         -55.7051        -41.8141         -55.7031        -41.8091       -0.0100421         148.038
0.547                  -0.590301        -145.442         -55.5025        -44.2159         -55.5006         -44.211       -0.0101463         147.968
0.548                  -0.609542        -145.992         -55.3009        -46.6191          -55.299        -46.6143       -0.0102519         147.899
0.549                   -0.62927        -146.545         -55.1002        -49.0242         -55.0985        -49.0196       -0.0103591         147.829
0.55                   -0.649489          -147.1         -54.9007        -51.4319          -54.899        -51.4273       -0.0104678         147.759
0.551                  -0.670204        -147.657         -54.7022        -53.8424         -54.7006        -53.8381        -0.010578         147.689
0.552                  -0.691416        -148.217          -54.505        -56.2565         -54.5035        -56.2523       -0.0106899         147.619
0.553                  -0.713131        -148.778         -54.3091        -58.6744         -54.3077        -58.6704       -0.0108033         147.549
0.554                  -0.735352        -149.343         -54.1146        -61.0965         -54.1132        -61.0927       -0.0109184         147.478
0.555                   -0.75808        -149.909         -53.9214        -63.5234         -53.9202        -63.5198       -0.0110351         147.408
0.556                  -0.781321        -150.478         -53.7297        -65.9552         -53.7286        -65.9518       -0.0111535         147.337
0.557                  -0.805076        -151.048         -53.5396        -68.3924         -53.5385        -68.3892       -0.0112735         147.266
0.558                  -0.829349        -151.621          -53.351        -70.8351           -53.35        -70.8321       -0.0113953         147.196
0.559                  -0.854142        -152.197          -53.164        -73.2837         -53.1631        -73.2809       -0.0115187         147.125
0.56                   -0.879459        -152.774         -52.9787        -75.7383         -52.9778        -75.7357        -0.011644         147.054
0.561                    -0.9053        -153.354         -52.7951         -78.199         -52.7943        -78.1966       -0.0117709         146.982
0.562                   -0.93167        -153.935         -52.6132        -80.6662         -52.6125         -80.664       -0.0118997         146.911
0.563                  -0.958569        -154.519         -52.4332        -83.1397         -52.4325        -83.1378       -0.0120303         146.839
0.564                  -0.986001        -155.105         -52.2549        -85.6198         -52.2544        -85.6181       -0.0121627         146.768
0.565                   -1.01397        -155.692         -52.0785        -88.1065          -52.078        -88.1049        -0.012297         146.696
0.566                   -1.04247        -156.282          -51.904        -90.5997         -51.9036        -90.5984       -0.0124331         146.624
0.567                   -1.07151        -156.874         -51.7314        -93.0996         -51.7311        -93.0984       -0.0125712         146.552
0.568                   -1.10109        -157.468         -51.5608        -95.6059         -51.5605        -95.6049       -0.0127112          146.48
0.569                   -1.13121        -158.063          -51.392        -98.1187         -51.3918        -98.1179       -0.0128531         146.408
0.57                    -1.16187        -158.661         -51.2253        -100.638         -51.2252        -100.637       -0.0129971         146.335
0.571                   -1.19308        -159.261         -51.0605        -103.163         -51.0605        -103.163        -0.013143         146.263
0.572                   -1.22484        -159.863         -50.8978        -105.695         -50.8978        -105.694        -0.013291          146.19
0.573                   -1.25714        -160.466          -50.737        -108.232         -50.7371        -108.232        -0.013441         146.117
0.574                   -1.28999        -161.072         -50.5783        -110.775         -50.5784        -110.775       -0.0135932         146.044
0.575                   -1.32339        -161.679         -50.4215        -113.324         -50.4217        -113.324       -0.0137474         145.971
0.576                   -1.35734        -162.288         -50.2668        -115.877          -50.267        -115.878       -0.0139039         145.898
0.577                   -1.39184        -162.899          -50.114        -118.436         -50.1143        -118.437       -0.0140625         145.824
0.578                    -1.4269        -163.512         -49.9632            -121         -49.9635        -121.001       -0.0142233         145.751
0.579                    -1.4625        -164.127         -49.8144        -123.568         -49.8148        -123.569       -0.0143863         145.677
0.58                    -1.49867        -164.744         -49.6675        -126.141         -49.6679        -126.141       -0.0145517         145.603
0.581                   -1.53539        -165.363         -49.5226        -128.717          -49.523        -128.718       -0.0147193         145.529
0.582                   -1.57267        -165.984         -49.3796        -131.297           -49.38        -131.298       -0.0148893         145.455
0.583                   -1.61051        -166.606         -49.2384         -133.88         -49.2389        -133.881       -0.0150617          145.38
0.584                   -1.64891        -167.231         -49.0991        -136.466         -49.0996        -136.467       -0.0152365         145.306
0.585                   -1.68786        -167.857         -48.9616        -139.055         -48.9622        -139.057       -0.0154137         145.231
0.586                   -1.72739        -168.485         -48.8258        -141.647         -48.8264        -141.648       -0.0155934         145.156
0.587                   -1.76748        -169.115         -48.6918         -144.24         -48.6925        -144.242       -0.0157756         145.081
0.588                   -1.80813        -169.748         -48.5595        -146.836         -48.5602        -146.837       -0.0159604         145.006
0.589                   -1.84935        -170.382         -48.4288        -149.433         -48.4295        -149.434       -0.0161478          144.93
0.59                    -1.89115        -171.018         -48.2998        -152.031         -48.3004        -152.032       -0.0163379         144.855
0.591                   -1.93351        -171.656         -48.1722         -154.63         -48.1729        -154.631       -0.0165306         144.779
0.592                   -1.97646        -172.296         -48.0462         -157.23         -48.0469        -157.231        -0.016726         144.703
0.593                   -2.01998        -172.939         -47.9215         -159.83         -47.9222        -159.831       -0.0169242         144.627
0.594                   -2.06408        -173.583         -47.7983         -162.43          -47.799        -162.431       -0.0171252         144.551
0.595                   -2.10877         -174.23         -47.6764         -165.03         -47.6771        -165.032        -0.017329         144.474
0.596                   -2.15405        -174.878         -47.5558         -167.63         -47.5565        -167.632       -0.0175358         144.398
0.597                   -2.19992        -175.529         -47.4363         -170.23          -47.437        -170.231       -0.0177454         144.321
0.598                   -2.24639        -176.182          -47.318        -172.829         -47.3187         -172.83       -0.0179581         144.244
0.599                   -2.29347        -176.838         -47.2008        -175.426         -47.2015        -175.428       -0.0181738         144.167
0.6                     -2.34115        -177.496         -47.0847        -178.023         -47.0853        -178.024       -0.0183926         144.089
0.601                   -2.38945        -178.156         -46.9695         179.381         -46.9701          179.38       -0.0186145         144.012
0.602                   -2.43837        -178.819         -46.8552         176.787         -46.8558         176.786       -0.0188397         143.934
0.603                   -2.48793        -179.484         -46.7418         174.195         -46.7424         174.194        -0.019068         143.856
0.604                   -2.53812         179.848         -46.6291         171.603         -46.6297         171.602       -0.0192997         143.778
0.605                   -2.58896         179.178         -46.5172         169.014         -46.5178         169.013       -0.0195347         143.699
0.606                   -2.64045         178.505          -46.406         166.426         -46.4066         166.426       -0.0197731         143.621
0.607                   -2.69262         177.829         -46.2954         163.841          -46.296          163.84        -0.020015         143.542
0.608                   -2.74546         177.151         -46.1854         161.257         -46.1859         161.256       -0.0202604         143.463
0.609                   -2.79899         176.469         -46.0759         158.675         -46.0764         158.674       -0.0205094         143.384
0.61                    -2.85323         175.785         -45.9669         156.095         -45.9674         156.094       -0.0207621         143.304
0.611                   -2.90818         175.098         -45.8583         153.517         -45.8587         153.516       -0.0210185         143.225
0.612                   -2.96387         174.407         -45.7501         150.941         -45.7505          150.94       -0.0212786         143.145
0.613                   -3.02032         173.714         -45.6422         148.367         -45.6426         148.366       -0.0215426         143.065
0.614                   -3.07753         173.017         -45.5346         145.794         -45.5349         145.794       -0.0218105         142.984
0.615                   -3.13553         172.317         -45.4272         143.224         -45.4275         143.223       -0.0220824         142.904
0.616                   -3.19433         171.613         -45.3201         140.655         -45.3204         140.655       -0.0223583         142.823
0.617                   -3.25397         170.906         -45.2131         138.089         -45.2134         138.088       -0.0226384         142.742
0.618                   -3.31446         170.196         -45.1063         135.524         -45.1065         135.523       -0.0229226         142.661
0.619                   -3.37584         169.481         -44.9996          132.96         -44.9998          132.96       -0.0232112         142.579
0.62                    -3.43811         168.764         -44.8929         130.399         -44.8931         130.398       -0.0235041         142.497
0.621                   -3.50133         168.042         -44.7864         127.838         -44.7865         127.838       -0.0238014         142.415
0.622                   -3.56551         167.317         -44.6798         125.279           -44.68         125.279       -0.0241033         142.333
0.623                   -3.63068         166.587         -44.5733         122.722         -44.5734         122.721       -0.0244098          142.25
0.624                   -3.69689         165.854         -44.4668         120.165         -44.4669         120.165       -0.0247209         142.168
0.625                   -3.76416         165.117         -44.3602          117.61         -44.3603          117.61       -0.0250369         142.085
0.626                   -3.83254         164.375         -44.2536         115.056         -44.2537         115.055       -0.0253577         142.001
0.627                   -3.90206          163.63          -44.147         112.502          -44.147         112.502       -0.0256835         141.918
0.628                   -3.97277          162.88         -44.0403         109.949         -44.0403         109.949       -0.0260143         141.834
0.629                   -4.04471         162.127         -43.9336         107.397         -43.9336         107.397       -0.0263503          141.75
0.63                    -4.11793         161.369         -43.8268         104.845         -43.8267         104.845       -0.0266916         141.665
0.631                   -4.19248         160.607         -43.7199         102.294         -43.7198         102.294       -0.0270382         141.581
0.632                   -4.26841          159.84          -43.613         99.7433         -43.6129         99.7433       -0.0273903         141.496
0.633                   -4.34578          159.07          -43.506         97.1926         -43.5058         97.1926        -0.027748         141.411
0.634                   -4.42463         158.295         -43.3989         94.6419         -43.3988         94.6419       -0.0281114         141.325
0.635                   -4.50503         157.516         -43.2918         92.0912         -43.2916         92.0912       -0.0284806         141.239
0.636                   -4.58704         156.734         -43.1846         89.5403         -43.1845         89.5404       -0.0288557         141.153
0.637                   -4.67073         155.947         -43.0774         86.9892         -43.0772         86.9893       -0.0292368         141.067
0.638                   -4.75615         155.156         -42.9702         84.4377           -42.97         84.4379       -0.0296241          140.98
0.639                   -4.84337         154.362          -42.863         81.8858         -42.8628          81.886       -0.0300177         140.893
0.64                    -4.93248         153.564         -42.7558         79.3334         -42.7556         79.3336       -0.0304177         140.806
0.641                   -5.02353         152.763         -42.6486         76.7804         -42.6484         76.7806       -0.0308242         140.718
0.642                    -5.1166         151.959         -42.5415         74.2267         -42.5412         74.2269       -0.0312375          140.63
0.643                   -5.21176         151.152         -42.4344         71.6722         -42.4341         71.6724       -0.0316575         140.542
0.644                    -5.3091         150.342         -42.3274          69.117         -42.3271         69.1172       -0.0320846         140.453
0.645                   -5.40868          149.53         -42.2205         66.5609         -42.2202         66.5611       -0.0325187         140.364
0.646                    -5.5106         148.716         -42.1137         64.0039         -42.1134         64.0041       -0.0329602         140.275
0.647                   -5.61492           147.9         -42.0071         61.4459         -42.0068         61.4461        -0.033409         140.185
0.648                   -5.72172         147.083         -41.9006          58.887         -41.9004         58.8872       -0.0338655         140.095
0.649                    -5.8311         146.266         -41.7944         56.3271         -41.7941         56.3273       -0.0343296         140.005
0.65                    -5.94311         145.448         -41.6883         53.7662         -41.6881         53.7664       -0.0348017         139.914
0.651                   -6.05785         144.631         -41.5825         51.2043         -41.5823         51.2046       -0.0352819         139.823
0.652                   -6.17538         143.815          -41.477         48.6414         -41.4767         48.6417       -0.0357704         139.731
0.653                   -6.29579             143         -41.3718         46.0776         -41.3715         46.0779       -0.0362673         139.639
0.654                   -6.41913         142.188         -41.2669         43.5128         -41.2666         43.5131       -0.0367728         139.547
0.655                   -6.54549         141.379         -41.1623         40.9472          -41.162         40.9475       -0.0372871         139.455
0.656                   -6.67492         140.574         -41.0581         38.3807         -41.0579          38.381       -0.0378105         139.362
0.657                   -6.80748         139.773         -40.9543         35.8134          -40.954         35.8137       -0.0383431         139.268
0.658                   -6.94323         138.979         -40.8509         33.2454         -40.8507         33.2457       -0.0388851         139.174
0.659                   -7.08222         138.191         -40.7479         30.6767         -40.7477          30.677       -0.0394367          139.08
0.66                    -7.22448         137.411         -40.6454         28.1075         -40.6452         28.1078       -0.0399981         138.985
0.661                   -7.37005         136.639         -40.5434         25.5378         -40.5432         25.5382       -0.0405696          138.89
0.662                   -7.51896         135.878         -40.4418         22.9678         -40.4416         22.9681       -0.0411515         138.795
0.663                   -7.67122         135.127         -40.3408         20.3975         -40.3406         20.3979       -0.0417438         138.699
0.664                   -7.82684         134.389         -40.2403          17.827         -40.2401         17.8274       -0.0423469         138.603
0.665                   -7.98581         133.664         -40.1403         15.2566         -40.1401          15.257       -0.0429609         138.506
0.666                   -8.14813         132.954         -40.0409         12.6863         -40.0407         12.6867       -0.0435863         138.408
0.667                   -8.31376         132.259          -39.942         10.1162         -39.9419         10.1167       -0.0442231         138.311
0.668                   -8.48267         131.582         -39.8437         7.54654         -39.8436           7.547       -0.0448716         138.213
0.669                   -8.65481         130.923          -39.746         4.97741         -39.7459          4.9779       -0.0455322         138.114
0.67                    -8.83011         130.284         -39.6489         2.40899         -39.6488         2.40949        -0.046205         138.015
0.671                    -9.0085         129.666         -39.5524       -0.158598         -39.5523        -0.15808       -0.0468904         137.915
0.672                   -9.18988         129.071         -39.4564        -2.72518         -39.4564        -2.72464       -0.0475886         137.815
0.673                   -9.37415           128.5         -39.3611         -5.2906          -39.361        -5.29005       -0.0482999         137.714
0.674                   -9.56119         127.953         -39.2663        -7.85471         -39.2663        -7.85413       -0.0490245         137.613
0.675                   -9.75086         127.433         -39.1721        -10.4174         -39.1721        -10.4168       -0.0497629         137.511
0.676                   -9.94301         126.941         -39.0785        -12.9784         -39.0785        -12.9777       -0.0505152         137.409
0.677                   -10.1375         126.478         -38.9855        -15.5376         -38.9855        -15.5369       -0.0512817         137.307
0.678                   -10.3341         126.044          -38.893        -18.0949         -38.8931        -18.0942       -0.0520628         137.203
0.679                   -10.5327         125.642         -38.8011        -20.6501         -38.8012        -20.6494       -0.0528588         137.099
0.68                     -10.733         125.272         -38.7097         -23.203         -38.7098        -23.2023       -0.0536699         136.995
0.681                   -10.9348         124.935         -38.6188        -25.7536         -38.6189        -25.7529       -0.0544964          136.89
0.682                   -11.1379         124.632         -38.5284        -28.3017         -38.5285        -28.3009       -0.0553387         136.785
0.683                   -11.3421         124.363         -38.4385        -30.8471         -38.4386        -30.8464        -0.056197         136.679
0.684                   -11.5471         124.131         -38.3491        -33.3898         -38.3492         -33.389       -0.0570716         136.572
0.685                   -11.7526         123.935         -38.2601        -35.9296         -38.2602        -35.9288       -0.0579629         136.465
0.686                   -11.9584         123.775         -38.1715        -38.4664         -38.1716        -38.4656       -0.0588711         136.357
0.687                   -12.1641         123.653         -38.0832        -41.0001         -38.0834        -40.9992       -0.0597965         136.248
0.688                   -12.3695         123.568         -37.9954        -43.5306         -37.9955        -43.5297       -0.0607394         136.139
0.689                   -12.5744         123.521         -37.9078        -46.0579          -37.908         -46.057       -0.0617001         136.029
0.69                    -12.7783         123.511         -37.8205        -48.5818         -37.8207        -48.5809       -0.0626787         135.919
0.691                    -12.981         123.539         -37.7335        -51.1023         -37.7337        -51.1014       -0.0636757         135.807
0.692                   -13.1821         123.605         -37.6468        -53.6194          -37.647        -53.6184       -0.0646911         135.696
0.693                   -13.3815         123.708         -37.5602        -56.1329         -37.5604         -56.132       -0.0657253         135.583
0.694                   -13.5787         123.847         -37.4738         -58.643          -37.474         -58.642       -0.0667784          135.47
0.695                   -13.7736         124.022         -37.3875        -61.1495         -37.3878        -61.1485       -0.0678507         135.356
0.696                   -13.9657         124.233         -37.3014        -63.6524         -37.3016        -63.6514       -0.0689424         135.241
0.697                   -14.1548         124.478         -37.2152        -66.1518         -37.2155        -66.1508       -0.0700535         135.126