! TOUCHSTONE file generated by CST MICROWAVE STUDIO
! Date and time: Mon Sep 28 15:36:20 2020
! Project name: Scenario_1_Free_SPace.cst
! Parameters = {dx1=1004.6; L_HA=400; MT=2.54; Rad_Dielectric=30; Rad_Lower=7.3; Rad_Upper=30; a_HA=580; a_WG=246; b_HA=500; b_WG=121; c_HA=0; c_WG=187; d_feed=85; h_feed=15; h_lower=18; h_upper=40}
! Header version: 2018
! Port assignment regex: !\s*Touchstone port\s*([0-9]+)\s*=\s*(CST MWS port|CST DS port)\s*([0-9]+|Zmin|Zmax)\s*\(\"(.*)\"\)(\s*mode\s*([0-9]+))?.*
! Touchstone port assignment:
! Touchstone port 1 = CST MWS port 1 ("")
! Touchstone port 2 = CST MWS port 2 ("")
# GHz S DB R 50
0.5                    -0.146658        -122.518         -63.5797           65.08         -63.6305         65.6681      -0.00666167         151.137
0.501                  -0.150296        -122.956         -63.4056         63.3331          -63.551         63.5342      -0.00671191         151.072
0.502                  -0.154167        -123.396          -63.231         61.5653         -63.4677         61.3766      -0.00676308         151.007
0.503                  -0.158275        -123.839         -63.0559         59.7762         -63.3806         59.1958       -0.0068152         150.941
0.504                  -0.162622        -124.283         -62.8802         57.9653         -63.2896         56.9922      -0.00686828         150.876
0.505                  -0.167212        -124.731         -62.7039         56.1324         -63.1945         54.7665      -0.00692232          150.81
0.506                  -0.172049         -125.18         -62.5271         54.2768         -63.0954         52.5193      -0.00697733         150.744
0.507                  -0.177136        -125.631         -62.3496         52.3983         -62.9921         50.2511      -0.00703332         150.679
0.508                  -0.182477        -126.085         -62.1714         50.4965         -62.8845         47.9627      -0.00709031         150.613
0.509                  -0.188075        -126.541         -61.9926         48.5709         -62.7727         45.6548      -0.00714829         150.547
0.51                   -0.193935            -127         -61.8132         46.6211         -62.6565         43.3281      -0.00720728         150.481
0.511                  -0.200058         -127.46         -61.6331         44.6468          -62.536         40.9833      -0.00726728         150.415
0.512                  -0.206451        -127.923         -61.4523         42.6477         -62.4111         38.6213      -0.00732831         150.349
0.513                  -0.213114        -128.388         -61.2708         40.6233         -62.2817         36.2429      -0.00739038         150.282
0.514                  -0.220054        -128.856         -61.0886         38.5733          -62.148         33.8488      -0.00745349         150.216
0.515                  -0.227273        -129.325         -60.9057         36.4974         -62.0098         31.4398      -0.00751766          150.15
0.516                  -0.234774        -129.797         -60.7221         34.3953         -61.8673         29.0168       -0.0075829         150.083
0.517                  -0.242563        -130.271         -60.5379         32.2667         -61.7204         26.5806       -0.0076492         150.016
0.518                  -0.250641        -130.748          -60.353         30.1113         -61.5692         24.1319       -0.0077166          149.95
0.519                  -0.259014        -131.226         -60.1674         27.9288         -61.4138         21.6714      -0.00778509         149.883
0.52                   -0.267685        -131.707         -59.9811          25.719         -61.2542            19.2      -0.00785469         149.816
0.521                  -0.276657        -132.191         -59.7943         23.4817         -61.0905         16.7183      -0.00792541         149.749
0.522                  -0.285935        -132.676         -59.6068         21.2167         -60.9227         14.2271      -0.00799725         149.682
0.523                  -0.295522        -133.164         -59.4188         18.9238         -60.7511         11.7269      -0.00807024         149.615
0.524                  -0.305423        -133.654         -59.2302          16.603         -60.5756         9.21835      -0.00814438         149.548
0.525                   -0.31564        -134.146         -59.0411         14.2542         -60.3964         6.70206      -0.00821968          149.48
0.526                  -0.326178        -134.641         -58.8515         11.8772         -60.2137         4.17851      -0.00829616         149.413
0.527                  -0.337041        -135.138         -58.6616         9.47209         -60.0275         1.64818      -0.00837382         149.346
0.528                  -0.348233        -135.637         -58.4712         7.03886         -59.8381       -0.888513      -0.00845269         149.278
0.529                  -0.359756        -136.138         -58.2806         4.57759         -59.6454        -3.43118      -0.00853277          149.21
0.53                   -0.371617        -136.642         -58.0897         2.08837         -59.4498        -5.97951      -0.00861407         149.142
0.531                  -0.383817        -137.148         -57.8987       -0.428622         -59.2514         -8.5332      -0.00869661         149.075
0.532                  -0.396362        -137.656         -57.7075        -2.97319         -59.0502         -11.092       -0.0087804         149.007
0.533                  -0.409255        -138.166         -57.5163        -5.54506         -58.8466        -13.6558      -0.00886545         148.939
0.534                    -0.4225        -138.679         -57.3251        -8.14393         -58.6406        -16.2244      -0.00895179          148.87
0.535                  -0.436101        -139.194         -57.1341        -10.7694         -58.4325        -18.7977      -0.00903941         148.802
0.536                  -0.450061        -139.711         -56.9433        -13.4211         -58.2224        -21.3756      -0.00912834         148.734
0.537                  -0.464386         -140.23         -56.7529        -16.0985         -58.0105        -23.9582      -0.00921859         148.665
0.538                  -0.479078        -140.752         -56.5628         -18.801         -57.7969        -26.5453      -0.00931018         148.597
0.539                  -0.494143        -141.276         -56.3733         -21.528          -57.582         -29.137      -0.00940311         148.528
0.54                   -0.509583        -141.802         -56.1844        -24.2789         -57.3657        -31.7335      -0.00949741         148.459
0.541                  -0.525403         -142.33         -55.9962        -27.0529         -57.1484        -34.3347      -0.00959309          148.39
0.542                  -0.541606        -142.861         -55.8088        -29.8492         -56.9302        -36.9408      -0.00969016         148.321
0.543                  -0.558197        -143.394         -55.6223        -32.6668         -56.7113        -39.5518      -0.00978865         148.252
0.544                   -0.57518        -143.929         -55.4369        -35.5049         -56.4919        -42.1679      -0.00988856         148.183
0.545                  -0.592559        -144.466         -55.2527        -38.3625         -56.2721        -44.7891      -0.00998992         148.113
0.546                  -0.610338        -145.005         -55.0697        -41.2385         -56.0521        -47.4157       -0.0100927         148.044
0.547                   -0.62852        -145.547          -54.888        -44.1318         -55.8322        -50.0477        -0.010197         147.974
0.548                   -0.64711        -146.091         -54.7077        -47.0412         -55.6125        -52.6852       -0.0103028         147.905
0.549                  -0.666112        -146.637          -54.529        -49.9655         -55.3931        -55.3284       -0.0104101         147.835
0.55                    -0.68553        -147.185         -54.3519        -52.9034         -55.1742        -57.9772        -0.010519         147.765
0.551                  -0.705368        -147.736         -54.1765        -55.8536         -54.9561        -60.6318       -0.0106294         147.695
0.552                   -0.72563        -148.289         -54.0029        -58.8149         -54.7388        -63.2922       -0.0107413         147.625
0.553                  -0.746319        -148.843         -53.8312        -61.7857         -54.5225        -65.9585       -0.0108548         147.555
0.554                  -0.767441        -149.401         -53.6613        -64.7648         -54.3074        -68.6305         -0.01097         147.484
0.555                     -0.789         -149.96         -53.4934        -67.7506         -54.0937        -71.3083       -0.0110868         147.414
0.556                  -0.810998        -150.521         -53.3275        -70.7419         -53.8815        -73.9918       -0.0112052         147.343
0.557                  -0.833441        -151.085         -53.1636        -73.7372         -53.6708        -76.6809       -0.0113253         147.272
0.558                  -0.856333        -151.651         -53.0018         -76.735          -53.462        -79.3755       -0.0114471         147.201
0.559                  -0.879677        -152.219         -52.8421        -79.7341         -53.2551        -82.0753       -0.0115705          147.13
0.56                   -0.903478        -152.789         -52.6845        -82.7329         -53.0501        -84.7802       -0.0116958         147.059
0.561                  -0.927741        -153.362         -52.5289        -85.7303         -52.8474          -87.49       -0.0118227         146.988
0.562                  -0.952468        -153.936         -52.3755        -88.7248         -52.6469        -90.2042       -0.0119515         146.917
0.563                  -0.977666        -154.513         -52.2241        -91.7152         -52.4487        -92.9227        -0.012082         146.845
0.564                   -1.00334        -155.092         -52.0747        -94.7003          -52.253        -95.6451       -0.0122144         146.773
0.565                   -1.02949        -155.673         -51.9273         -97.679         -52.0599         -98.371       -0.0123486         146.702
0.566                   -1.05612        -156.256         -51.7819         -100.65         -51.8694          -101.1       -0.0124847          146.63
0.567                   -1.08324        -156.842         -51.6383        -103.613         -51.6816        -103.832       -0.0126226         146.558
0.568                   -1.11084        -157.429         -51.4966        -106.565         -51.4966        -106.565       -0.0127625         146.486
0.569                   -1.13895        -158.019         -51.3567        -109.508         -51.3144        -109.301       -0.0129044         146.413
0.57                    -1.16755        -158.611         -51.2184        -112.439         -51.1351        -112.038       -0.0130482         146.341
0.571                   -1.19666        -159.205         -51.0818        -115.358         -50.9586        -114.775        -0.013194         146.268
0.572                   -1.22628        -159.802         -50.9468        -118.264         -50.7852        -117.513       -0.0133418         146.195
0.573                   -1.25642          -160.4         -50.8133        -121.157         -50.6146         -120.25       -0.0134917         146.122
0.574                   -1.28707        -161.001         -50.6811        -124.036          -50.447        -122.986       -0.0136437         146.049
0.575                   -1.31824        -161.604         -50.5502        -126.901         -50.2824        -125.721       -0.0137978         145.976
0.576                   -1.34994        -162.209         -50.4206        -129.751         -50.1206        -128.454        -0.013954         145.903
0.577                   -1.38218        -162.816         -50.2922        -132.586         -49.9619        -131.184       -0.0141124         145.829
0.578                   -1.41495        -163.425         -50.1648        -135.406          -49.806        -133.911        -0.014273         145.756
0.579                   -1.44827        -164.037         -50.0383         -138.21         -49.6529        -136.635       -0.0144358         145.682
0.58                    -1.48213        -164.651         -49.9128        -140.999         -49.5027        -139.355       -0.0146009         145.608
0.581                   -1.51655        -165.267         -49.7881        -143.773         -49.3552         -142.07       -0.0147683         145.534
0.582                   -1.55153        -165.885         -49.6641         -146.53         -49.2105        -144.781       -0.0149381         145.459
0.583                   -1.58707        -166.506         -49.5407        -149.273         -49.0683        -147.486       -0.0151102         145.385
0.584                   -1.62318        -167.128          -49.418            -152         -48.9288        -150.185       -0.0152847          145.31
0.585                   -1.65987        -167.753         -49.2958        -154.712         -48.7917        -152.879       -0.0154616         145.236
0.586                   -1.69714         -168.38          -49.174        -157.408          -48.657        -155.566       -0.0156411         145.161
0.587                   -1.73499         -169.01         -49.0526        -160.091         -48.5247        -158.247        -0.015823         145.086
0.588                   -1.77345        -169.642         -48.9315        -162.758         -48.3946        -160.921       -0.0160075          145.01
0.589                    -1.8125        -170.276         -48.8106        -165.412         -48.2666        -163.587       -0.0161946         144.935
0.59                    -1.85216        -170.912           -48.69        -168.052         -48.1407        -166.247       -0.0163843         144.859
0.591                   -1.89243        -171.551         -48.5696        -170.679         -48.0167        -168.899       -0.0165766         144.783
0.592                   -1.93332        -172.192         -48.4492        -173.293         -47.8946        -171.544       -0.0167717         144.707
0.593                   -1.97485        -172.835         -48.3289        -175.895         -47.7743        -174.181       -0.0169696         144.631
0.594                     -2.017        -173.481         -48.2087        -178.485         -47.6556        -176.811       -0.0171702         144.555
0.595                   -2.05981        -174.129         -48.0884         178.937         -47.5385        -179.434       -0.0173737         144.479
0.596                   -2.10326         -174.78         -47.9681         176.369         -47.4228         177.951       -0.0175801         144.402
0.597                   -2.14738        -175.433         -47.8477         173.812         -47.3085         175.344       -0.0177894         144.325
0.598                   -2.19216        -176.088         -47.7273         171.265         -47.1955         172.744       -0.0180018         144.248
0.599                   -2.23762        -176.746         -47.6067         168.727         -47.0837          170.15       -0.0182171         144.171
0.6                     -2.28377        -177.406          -47.486         166.198         -46.9729         167.564       -0.0184355         144.093
0.601                   -2.33062        -178.069         -47.3651         163.677         -46.8632         164.985       -0.0186571         144.015
0.602                   -2.37817        -178.735         -47.2441         161.164         -46.7544         162.412       -0.0188818         143.938
0.603                   -2.42644        -179.403         -47.1229         158.658         -46.6464         159.845       -0.0191098          143.86
0.604                   -2.47545         179.926         -47.0016         156.158         -46.5391         157.285       -0.0193411         143.781
0.605                   -2.52519         179.253           -46.88         153.665         -46.4325          154.73       -0.0195757         143.703
0.606                   -2.57569         178.577         -46.7583         151.176         -46.3265         152.181       -0.0198138         143.624
0.607                   -2.62695         177.899         -46.6365         148.693          -46.221         149.637       -0.0200553         143.545
0.608                   -2.67899         177.217         -46.5144         146.214          -46.116         147.098       -0.0203003         143.466
0.609                   -2.73183         176.533         -46.3922         143.739         -46.0113         144.564        -0.020549         143.387
0.61                    -2.78547         175.846         -46.2699         141.267          -45.907         142.034       -0.0208013         143.307
0.611                   -2.83994         175.156         -46.1474         138.798         -45.8029         139.508       -0.0210573         143.228
0.612                   -2.89525         174.464         -46.0248         136.331          -45.699         136.986        -0.021317         143.148
0.613                   -2.95141         173.768          -45.902         133.865         -45.5954         134.466       -0.0215807         143.067
0.614                   -3.00845          173.07         -45.7793         131.401         -45.4918          131.95       -0.0218482         142.987
0.615                   -3.06638         172.368         -45.6564         128.938         -45.3883         129.436       -0.0221198         142.906
0.616                   -3.12522         171.664         -45.5335         126.475         -45.2848         126.925       -0.0223954         142.825
0.617                     -3.185         170.956         -45.4106         124.012         -45.1813         124.415       -0.0226751         142.744
0.618                   -3.24573         170.246         -45.2877         121.549         -45.0778         121.907       -0.0229591         142.663
0.619                   -3.30744         169.532         -45.1648         119.084         -44.9742           119.4       -0.0232473         142.581
0.62                    -3.37015         168.815         -45.0421         116.618         -44.8705         116.893       -0.0235399           142.5
0.621                   -3.43388         168.095         -44.9194          114.15         -44.7667         114.388        -0.023837         142.417
0.622                   -3.49868         167.371         -44.7968          111.68         -44.6628         111.882       -0.0241386         142.335
0.623                   -3.56455         166.645         -44.6745         109.207         -44.5587         109.376       -0.0244448         142.252
0.624                   -3.63154         165.914         -44.5523         106.732         -44.4544          106.87       -0.0247557          142.17
0.625                   -3.69966         165.181         -44.4304         104.253           -44.35         104.363       -0.0250715         142.086
0.626                   -3.76897         164.444         -44.3087         101.771         -44.2454         101.854       -0.0253921         142.003
0.627                   -3.83948         163.704         -44.1874         99.2858         -44.1407         99.3447       -0.0257177         141.919
0.628                   -3.91124          162.96         -44.0664         96.7962         -44.0357         96.8334       -0.0260484         141.835
0.629                   -3.98428         162.213         -43.9458         94.3024         -43.9306         94.3201       -0.0263843         141.751
0.63                    -4.05865         161.462         -43.8256         91.8043         -43.8253         91.8047       -0.0267255         141.667
0.631                   -4.13439         160.708          -43.706         89.3016         -43.7198         89.2869        -0.027072         141.582
0.632                   -4.21154          159.95         -43.5868         86.7943         -43.6142         86.7665       -0.0274241         141.497
0.633                   -4.29016         159.189         -43.4681         84.2821         -43.5084         84.2432       -0.0277817         141.412
0.634                   -4.37028         158.425         -43.3501         81.7649         -43.4026         81.7169       -0.0281451         141.326
0.635                   -4.45196         157.656         -43.2326         79.2428         -43.2966         79.1874       -0.0285143          141.24
0.636                   -4.53527         156.885         -43.1159         76.7156         -43.1905         76.6546       -0.0288894         141.154
0.637                   -4.62024          156.11         -42.9998         74.1832         -43.0843         74.1183       -0.0292706         141.067
0.638                   -4.70696         155.331         -42.8844         71.6457         -42.9781         71.5784        -0.029658          140.98
0.639                   -4.79547          154.55         -42.7698         69.1031         -42.8719         69.0348       -0.0300517         140.893
0.64                    -4.88585         153.765         -42.6561         66.5554         -42.7657         66.4873       -0.0304519         140.806
0.641                   -4.97817         152.977         -42.5431         64.0026         -42.6595         63.9361       -0.0308586         140.718
0.642                   -5.07251         152.186          -42.431         61.4449         -42.5533         61.3809        -0.031272          140.63
0.643                   -5.16893         151.392         -42.3198         58.8823         -42.4473         58.8217       -0.0316922         140.542
0.644                   -5.26751         150.596         -42.2095          56.315         -42.3414         56.2586       -0.0321194         140.453
0.645                   -5.36835         149.797         -42.1001          53.743         -42.2356         53.6916       -0.0325537         140.364
0.646                   -5.47153         148.996         -41.9917         51.1666           -42.13         51.1207       -0.0329953         140.274
0.647                   -5.57715         148.193         -41.8842         48.5859         -42.0246         48.5458       -0.0334442         140.184
0.648                   -5.68528         147.389         -41.7777         46.0012         -41.9194         45.9672       -0.0339007         140.094
0.649                   -5.79604         146.583         -41.6723         43.4125         -41.8146         43.3849       -0.0343649         140.004
0.65                    -5.90951         145.777         -41.5678         40.8202           -41.71         40.7989       -0.0348369         139.913
0.651                   -6.02582          144.97         -41.4644         38.2245         -41.6057         38.2094       -0.0353169         139.822
0.652                   -6.14505         144.163         -41.3619         35.6256         -41.5018         35.6165        -0.035805          139.73
0.653                   -6.26732         143.358         -41.2605         33.0238         -41.3983         33.0205       -0.0363014         139.638
0.654                   -6.39274         142.554         -41.1602         30.4193         -41.2952         30.4214       -0.0368063         139.546
0.655                   -6.52141         141.752         -41.0608         27.8125         -41.1926         27.8194       -0.0373197         139.453
0.656                   -6.65346         140.953         -40.9624         25.2036         -41.0904         25.2147       -0.0378418          139.36
0.657                   -6.78898         140.158         -40.8651         22.5929         -40.9888         22.6076       -0.0383729         139.266
0.658                   -6.92808         139.367         -40.7687         19.9807         -40.8876         19.9983       -0.0389129         139.172
0.659                   -7.07088         138.583         -40.6733         17.3673          -40.787         17.3869       -0.0394622         139.078
0.66                    -7.21748         137.807         -40.5788          14.753         -40.6869         14.7739       -0.0400207         138.983
0.661                   -7.36796         137.038         -40.4852          12.138         -40.5874         12.1593       -0.0405887         138.888
0.662                   -7.52242          136.28         -40.3926         9.52272         -40.4885          9.5435       -0.0411663         138.792
0.663                   -7.68095         135.533         -40.3008         6.90738         -40.3901         6.92674       -0.0417536         138.696
0.664                   -7.84359         134.799         -40.2098         4.29228         -40.2924         4.30931       -0.0423507           138.6
0.665                   -8.01042         134.081         -40.1196          1.6777         -40.1953         1.69149       -0.0429578         138.503
0.666                   -8.18147         133.379         -40.0302       -0.936108         -40.0988       -0.926449       -0.0435749         138.405
0.667                   -8.35675         132.696         -39.9415        -3.54887         -40.0029        -3.54421       -0.0442022         138.308
0.668                   -8.53627         132.034         -39.8535        -6.16033         -39.9076        -6.16151       -0.0448397         138.209
0.669                   -8.71999         131.396         -39.7661        -8.77026         -39.8129        -8.77806       -0.0454876          138.11
0.67                    -8.90785         130.783         -39.6793        -11.3784         -39.7189        -11.3936        -0.046146         138.011
0.671                   -9.09976         130.198          -39.593        -13.9846         -39.6254        -14.0078       -0.0468148         137.911
0.672                   -9.29559         129.644         -39.5073        -16.5886         -39.5325        -16.6204       -0.0474943         137.811
0.673                   -9.49517         129.123          -39.422        -19.1902         -39.4402        -19.2312       -0.0481844          137.71
0.674                   -9.69829         128.637         -39.3371        -21.7892         -39.3485        -21.8398       -0.0488853         137.609
0.675                    -9.9047          128.19         -39.2525        -24.3855         -39.2573        -24.4461        -0.049597         137.507
0.676                   -10.1141         127.784         -39.1683         -26.979         -39.1666        -27.0498       -0.0503196         137.405
0.677                   -10.3261         127.421         -39.0843        -29.5694         -39.0764        -29.6506       -0.0510533         137.302
0.678                   -10.5403         127.104         -39.0005        -32.1567         -38.9867        -32.2484       -0.0517981         137.199
0.679                   -10.7563         126.834         -38.9168        -34.7407         -38.8974        -34.8429       -0.0525541         137.095
0.68                    -10.9735         126.614         -38.8333        -37.3214         -38.8085        -37.4339       -0.0533216          136.99
0.681                   -11.1915         126.445         -38.7497        -39.8987           -38.72        -40.0213       -0.0541007         136.885
0.682                   -11.4095         126.328         -38.6662        -42.4724         -38.6319        -42.6049       -0.0548916         136.779
0.683                    -11.627         126.264         -38.5826        -45.0427         -38.5441        -45.1845       -0.0556947         136.673
0.684                   -11.8433         126.253          -38.499        -47.6094         -38.4566        -47.7601       -0.0565103         136.566
0.685                   -12.0577         126.296         -38.4151        -50.1725         -38.3693        -50.3314       -0.0573387         136.458
0.686                   -12.2695         126.391         -38.3311        -52.7319         -38.2823        -52.8984       -0.0581805          136.35
0.687                    -12.478         126.536         -38.2469        -55.2878         -38.1954         -55.461       -0.0590361         136.241
0.688                   -12.6826         126.732         -38.1623        -57.8401         -38.1087        -58.0191       -0.0599061         136.131
0.689                   -12.8826         126.974         -38.0774        -60.3888         -38.0221        -60.5727       -0.0607913         136.021
0.69                    -13.0774         127.259         -37.9922         -62.934         -37.9355        -63.1218       -0.0616922          135.91
0.691                   -13.2665         127.585         -37.9065        -65.4757          -37.849        -65.6663       -0.0626098         135.798
0.692                   -13.4493         127.948         -37.8204         -68.014         -37.7625        -68.2062       -0.0635449         135.685
0.693                   -13.6256         128.342         -37.7338         -70.549         -37.6759        -70.7416       -0.0644984         135.572
0.694                   -13.7951         128.764         -37.6467        -73.0806         -37.5893        -73.2724       -0.0654713         135.458
0.695                   -13.9574         129.208         -37.5591        -75.6091         -37.5025        -75.7987       -0.0664648         135.343
0.696                   -14.1126          129.67         -37.4709        -78.1345         -37.4156        -78.3207       -0.0674798         135.228
0.697                   -14.2607         130.146         -37.3821        -80.6569         -37.3284        -80.8383       -0.0685175         135.111