! TOUCHSTONE file generated by CST MICROWAVE STUDIO
! Date and time: Mon Sep 28 15:36:34 2020
! Project name: Scenario_1_Free_SPace.cst
! Parameters = {dx1=1021.9; L_HA=400; MT=2.54; Rad_Dielectric=30; Rad_Lower=7.3; Rad_Upper=30; a_HA=580; a_WG=246; b_HA=500; b_WG=121; c_HA=0; c_WG=187; d_feed=85; h_feed=15; h_lower=18; h_upper=40}
! Header version: 2018
! Port assignment regex: !\s*Touchstone port\s*([0-9]+)\s*=\s*(CST MWS port|CST DS port)\s*([0-9]+|Zmin|Zmax)\s*\(\"(.*)\"\)(\s*mode\s*([0-9]+))?.*
! Touchstone port assignment:
! Touchstone port 1 = CST MWS port 1 ("")
! Touchstone port 2 = CST MWS port 2 ("")
# GHz S DB R 50
0.5                    -0.147209         -122.59         -63.4269         56.4927         -63.4269         56.4927      -0.00669024         151.122
0.501                  -0.152821        -123.025         -63.3238         54.0331         -63.3227         54.0301      -0.00673762         151.057
0.502                  -0.158589        -123.462         -63.2159         51.5619         -63.2138         51.5563      -0.00678594         150.992
0.503                  -0.164517        -123.901         -63.1033           49.08         -63.1002         49.0721      -0.00683523         150.926
0.504                  -0.170608        -124.342         -62.9859         46.5886          -62.982         46.5786      -0.00688549         150.861
0.505                  -0.176866        -124.785          -62.864         44.0885         -62.8591         44.0768      -0.00693673         150.795
0.506                  -0.183295        -125.231         -62.7374         41.5808         -62.7317         41.5676      -0.00698898          150.73
0.507                  -0.189899        -125.679         -62.6064         39.0663         -62.5998         39.0519      -0.00704224         150.664
0.508                  -0.196682        -126.128         -62.4709         36.5461         -62.4635         36.5306      -0.00709652         150.598
0.509                  -0.203648        -126.581          -62.331         34.0208         -62.3229         34.0045      -0.00715184         150.532
0.51                     -0.2108        -127.035         -62.1869         31.4913         -62.1782         31.4745      -0.00720822         150.466
0.511                  -0.218143        -127.491         -62.0387         28.9583         -62.0293         28.9411      -0.00726566           150.4
0.512                  -0.225682         -127.95         -61.8864         26.4226         -61.8765         26.4052      -0.00732417         150.334
0.513                   -0.23342        -128.411         -61.7303         23.8847         -61.7198         23.8672      -0.00738378         150.268
0.514                  -0.241361        -128.875         -61.5704         21.3453         -61.5595         21.3278       -0.0074445         150.202
0.515                  -0.249511         -129.34         -61.4069         18.8047         -61.3956         18.7874      -0.00750633         150.135
0.516                  -0.257874        -129.808           -61.24         16.2636         -61.2283         16.2464       -0.0075693         150.069
0.517                  -0.266453        -130.279         -61.0697         13.7221         -61.0577         13.7053      -0.00763341         150.002
0.518                  -0.275255        -130.751         -60.8963         11.1808          -60.884         11.1644      -0.00769869         149.935
0.519                  -0.284283        -131.226         -60.7199         8.63973         -60.7073         8.62375      -0.00776513         149.869
0.52                   -0.293542        -131.703         -60.5406          6.0992         -60.5279          6.0837      -0.00783277         149.802
0.521                  -0.303037        -132.183         -60.3586         3.55934         -60.3457         3.54434       -0.0079016         149.735
0.522                  -0.312774        -132.665         -60.1741         1.02022         -60.1612         1.00574      -0.00797165         149.668
0.523                  -0.322756        -133.149         -59.9872        -1.51811         -59.9742        -1.53206      -0.00804293         149.601
0.524                  -0.332989        -133.636         -59.7982        -4.05568         -59.7852         -4.0691      -0.00811545         149.534
0.525                  -0.343479        -134.125          -59.607        -6.59253         -59.5941        -6.60543      -0.00818923         149.466
0.526                  -0.354229        -134.617          -59.414        -9.12878         -59.4012        -9.14116      -0.00826429         149.399
0.527                  -0.365247        -135.111         -59.2193        -11.6645         -59.2065        -11.6764      -0.00834063         149.331
0.528                  -0.376536        -135.607          -59.023           -14.2         -59.0104        -14.2114      -0.00841827         149.264
0.529                  -0.388103        -136.106         -58.8253        -16.7354         -58.8128        -16.7464      -0.00849722         149.196
0.53                   -0.399952        -136.607         -58.6263        -19.2709          -58.614        -19.2815       -0.0085775         149.128
0.531                   -0.41209        -137.111         -58.4261        -21.8068         -58.4141         -21.817      -0.00865913          149.06
0.532                  -0.424521        -137.617          -58.225        -24.3434         -58.2133        -24.3532      -0.00874212         148.992
0.533                  -0.437252        -138.126         -58.0231        -26.8809         -58.0117        -26.8904      -0.00882648         148.924
0.534                  -0.450289        -138.637         -57.8205        -29.4197         -57.8094        -29.4289      -0.00891224         148.856
0.535                  -0.463636         -139.15         -57.6173          -31.96         -57.6065         -31.969      -0.00899939         148.788
0.536                  -0.477301        -139.666         -57.4138        -34.5023         -57.4033        -34.5109      -0.00908797          148.72
0.537                  -0.491288        -140.185         -57.2099        -37.0467         -57.1998        -37.0552      -0.00917797         148.651
0.538                  -0.505605        -140.706         -57.0059        -39.5937         -56.9962        -39.6019      -0.00926943         148.582
0.539                  -0.520256        -141.229         -56.8019        -42.1435         -56.7926        -42.1515      -0.00936236         148.514
0.54                   -0.535248        -141.755          -56.598        -44.6965         -56.5891        -44.7043      -0.00945676         148.445
0.541                  -0.550588        -142.284         -56.3943        -47.2529         -56.3858        -47.2606      -0.00955266         148.376
0.542                  -0.566281        -142.815         -56.1909         -49.813         -56.1829        -49.8205      -0.00965008         148.307
0.543                  -0.582334        -143.348         -55.9881        -52.3772         -55.9805        -52.3845      -0.00974902         148.238
0.544                  -0.598753        -143.884         -55.7857        -54.9456         -55.7786        -54.9528       -0.0098495         148.169
0.545                  -0.615544        -144.422         -55.5841        -57.5185         -55.5774        -57.5255      -0.00995155         148.099
0.546                  -0.632714        -144.963         -55.3833        -60.0962         -55.3771         -60.103       -0.0100552          148.03
0.547                  -0.650269        -145.507         -55.1834        -62.6787         -55.1776        -62.6853       -0.0101604          147.96
0.548                  -0.668216        -146.052         -54.9844        -65.2663         -54.9791        -65.2727       -0.0102672         147.891
0.549                  -0.686562        -146.601         -54.7866        -67.8592         -54.7817        -67.8654       -0.0103756         147.821
0.55                   -0.705312        -147.152           -54.59        -70.4574         -54.5856        -70.4633       -0.0104857         147.751
0.551                  -0.724474        -147.705         -54.3946         -73.061         -54.3907        -73.0667       -0.0105975         147.681
0.552                  -0.744054        -148.261         -54.2006        -75.6702         -54.1971        -75.6755       -0.0107109         147.611
0.553                  -0.764058        -148.819         -54.0081        -78.2849          -54.005        -78.2898        -0.010826          147.54
0.554                  -0.784494        -149.379         -53.8172        -80.9051         -53.8145        -80.9097       -0.0109428          147.47
0.555                  -0.805367        -149.943         -53.6278        -83.5308         -53.6256         -83.535       -0.0110614           147.4
0.556                  -0.826685        -150.508         -53.4401         -86.162         -53.4383        -86.1658       -0.0111817         147.329
0.557                  -0.848455        -151.076         -53.2542        -88.7985         -53.2528        -88.8019       -0.0113037         147.258
0.558                  -0.870682        -151.647         -53.0701        -91.4404         -53.0691        -91.4432       -0.0114276         147.187
0.559                  -0.893374        -152.219         -52.8879        -94.0873         -52.8873        -94.0896       -0.0115532         147.116
0.56                   -0.916536        -152.795         -52.7077        -96.7392         -52.7074         -96.741       -0.0116806         147.045
0.561                  -0.940177        -153.372         -52.5294        -99.3959         -52.5294        -99.3971       -0.0118099         146.974
0.562                  -0.964301        -153.952         -52.3532        -102.057         -52.3536        -102.058        -0.011941         146.903
0.563                  -0.988916        -154.534          -52.179        -104.723         -52.1797        -104.723        -0.012074         146.831
0.564                   -1.01403        -155.119          -52.007        -107.392          -52.008        -107.392       -0.0122089         146.759
0.565                   -1.03964        -155.706         -51.8371        -110.066         -51.8384        -110.064       -0.0123457         146.688
0.566                   -1.06577        -156.296         -51.6693        -112.742         -51.6709         -112.74       -0.0124844         146.616
0.567                   -1.09241        -156.887         -51.5038        -115.422         -51.5056         -115.42       -0.0126251         146.544
0.568                   -1.11958        -157.481         -51.3405        -118.105         -51.3425        -118.102       -0.0127677         146.472
0.569                   -1.14727        -158.077         -51.1793         -120.79         -51.1815        -120.786       -0.0129123         146.399
0.57                    -1.17549        -158.676         -51.0204        -123.478         -51.0228        -123.473       -0.0130589         146.327
0.571                   -1.20426        -159.276         -50.8637        -126.167         -50.8663        -126.161       -0.0132076         146.254
0.572                   -1.23357        -159.879         -50.7091        -128.857         -50.7119        -128.851       -0.0133582         146.181
0.573                   -1.26344        -160.484         -50.5568        -131.549         -50.5597        -131.542        -0.013511         146.109
0.574                   -1.29386        -161.091         -50.4066        -134.241         -50.4096        -134.234       -0.0136658         146.036
0.575                   -1.32484        -161.701         -50.2586        -136.934         -50.2617        -136.925       -0.0138228         145.962
0.576                   -1.35639        -162.312         -50.1127        -139.626         -50.1159        -139.617       -0.0139818         145.889
0.577                   -1.38851        -162.926         -49.9688        -142.319         -49.9721        -142.309        -0.014143         145.816
0.578                   -1.42121        -163.542         -49.8271         -145.01         -49.8304            -145       -0.0143064         145.742
0.579                   -1.45449        -164.159         -49.6873          -147.7         -49.6906        -147.689        -0.014472         145.668
0.58                    -1.48835        -164.779         -49.5494        -150.389         -49.5528        -150.378       -0.0146398         145.594
0.581                   -1.52281        -165.401         -49.4135        -153.076         -49.4169        -153.064       -0.0148098          145.52
0.582                   -1.55786        -166.025         -49.2794        -155.762         -49.2828        -155.749       -0.0149821         145.446
0.583                   -1.59351         -166.65         -49.1471        -158.445         -49.1505        -158.432       -0.0151566         145.372
0.584                   -1.62976        -167.278         -49.0165        -161.125         -49.0199        -161.112       -0.0153335         145.297
0.585                   -1.66661        -167.908         -48.8876        -163.803          -48.891        -163.789       -0.0155127         145.222
0.586                   -1.70407        -168.539         -48.7604        -166.478         -48.7636        -166.464       -0.0156943         145.147
0.587                   -1.74214        -169.173         -48.6346        -169.149         -48.6378        -169.135       -0.0158782         145.072
0.588                   -1.78082        -169.809         -48.5104        -171.818         -48.5135        -171.803       -0.0160646         144.997
0.589                   -1.82012        -170.446         -48.3875        -174.482         -48.3906        -174.468       -0.0162533         144.922
0.59                    -1.86003        -171.085          -48.266        -177.144          -48.269        -177.129       -0.0164446         144.846
0.591                   -1.90057        -171.726         -48.1458        -179.801         -48.1487        -179.787       -0.0166383          144.77
0.592                   -1.94172        -172.369         -48.0268         177.545         -48.0295         177.559       -0.0168346         144.695
0.593                   -1.98349        -173.014         -47.9088         174.895         -47.9115          174.91       -0.0170334         144.618
0.594                   -2.02589        -173.661          -47.792         172.249         -47.7946         172.263       -0.0172347         144.542
0.595                   -2.06891         -174.31         -47.6762         169.607         -47.6786         169.621       -0.0174387         144.466
0.596                   -2.11256        -174.961         -47.5612         166.969         -47.5636         166.983       -0.0176453         144.389
0.597                   -2.15683        -175.613         -47.4472         164.335         -47.4494         164.348       -0.0178545         144.312
0.598                   -2.20173        -176.268         -47.3339         161.704          -47.336         161.718       -0.0180665         144.235
0.599                   -2.24725        -176.924         -47.2214         159.078         -47.2234         159.091       -0.0182812         144.158
0.6                      -2.2934        -177.583         -47.1095         156.455         -47.1114         156.468       -0.0184987         144.081
0.601                   -2.34019        -178.243         -46.9982         153.835              -47         153.848       -0.0187189         144.003
0.602                    -2.3876        -178.906         -46.8875          151.22         -46.8892         151.232        -0.018942         143.925
0.603                   -2.43565        -179.571         -46.7773         148.608         -46.7788         148.619        -0.019168         143.847
0.604                   -2.48433         179.762         -46.6675         145.999         -46.6689          146.01       -0.0193969         143.769
0.605                   -2.53365         179.092         -46.5581         143.393         -46.5594         143.404       -0.0196288         143.691
0.606                    -2.5836          178.42         -46.4491          140.79         -46.4503         140.801       -0.0198636         143.612
0.607                   -2.63421         177.746         -46.3403          138.19         -46.3414           138.2       -0.0201015         143.534
0.608                   -2.68546         177.069         -46.2318         135.593         -46.2328         135.602       -0.0203425         143.455
0.609                   -2.73738         176.389         -46.1235         132.998         -46.1244         133.007       -0.0205867         143.375
0.61                    -2.78996         175.706         -46.0154         130.406         -46.0162         130.414       -0.0208341         143.296
0.611                   -2.84321         175.021         -45.9074         127.815         -45.9081         127.823       -0.0210847         143.216
0.612                   -2.89715         174.332         -45.7995         125.227         -45.8002         125.234       -0.0213386         143.136
0.613                   -2.95179          173.64         -45.6917          122.64         -45.6923         122.647       -0.0215959         143.056
0.614                   -3.00715         172.944         -45.5839         120.055         -45.5844         120.061       -0.0218567         142.976
0.615                   -3.06324         172.245         -45.4762         117.471         -45.4766         117.477        -0.022121         142.895
0.616                   -3.12008         171.543         -45.3684         114.888         -45.3688         114.894       -0.0223889         142.815
0.617                   -3.17771         170.836         -45.2607         112.306          -45.261         112.311       -0.0226605         142.734
0.618                   -3.23615         170.125         -45.1529         109.725         -45.1532         109.729       -0.0229358         142.652
0.619                   -3.29543          169.41          -45.045         107.144         -45.0453         107.148        -0.023215         142.571
0.62                    -3.35559          168.69         -44.9372         104.563         -44.9374         104.567       -0.0234982         142.489
0.621                   -3.41666         167.966         -44.8292         101.983         -44.8294         101.986       -0.0237854         142.407
0.622                    -3.4787         167.237         -44.7212         99.4018         -44.7214         99.4048       -0.0240768         142.325
0.623                   -3.54175         166.502         -44.6132         96.8208         -44.6133         96.8234       -0.0243726         142.242
0.624                   -3.60586         165.763          -44.505         94.2393         -44.5051         94.2415       -0.0246727          142.16
0.625                    -3.6711         165.018         -44.3968          91.657         -44.3969         91.6589       -0.0249775         142.077
0.626                   -3.73754         164.267         -44.2886         89.0739         -44.2886         89.0754       -0.0252869         141.993
0.627                   -3.80523         163.511         -44.1803         86.4897         -44.1803          86.491       -0.0256013          141.91
0.628                   -3.87426         162.749          -44.072         83.9044          -44.072         83.9053       -0.0259208         141.826
0.629                    -3.9447         161.981         -43.9636         81.3177         -43.9636         81.3184       -0.0262454         141.742
0.63                    -4.01665         161.207         -43.8553         78.7296         -43.8553           78.73       -0.0265756         141.657
0.631                   -4.09019         160.427         -43.7469         76.1398         -43.7469           76.14       -0.0269114         141.573
0.632                   -4.16542         159.641         -43.6386         73.5483         -43.6386         73.5483        -0.027253         141.488
0.633                   -4.24243          158.85         -43.5303          70.955         -43.5303         70.9549       -0.0276008         141.402
0.634                   -4.32133         158.053         -43.4221         68.3598         -43.4221         68.3595       -0.0279548         141.317
0.635                   -4.40222          157.25          -43.314         65.7626         -43.3139         65.7622       -0.0283154         141.231
0.636                   -4.48521         156.442         -43.2059         63.1634         -43.2059         63.1628       -0.0286828         141.145
0.637                   -4.57041          155.63         -43.0981          60.562          -43.098         60.5614       -0.0290572         141.058
0.638                   -4.65793         154.812         -42.9903         57.9585         -42.9903         57.9578       -0.0294389         140.972
0.639                   -4.74787         153.991         -42.8828         55.3528         -42.8828         55.3521       -0.0298282         140.885
0.64                    -4.84035         153.165         -42.7755         52.7449         -42.7755         52.7442       -0.0302251         140.797
0.641                   -4.93546         152.337         -42.6684         50.1348         -42.6684         50.1341       -0.0306299         140.709
0.642                   -5.03332         151.506         -42.5616         47.5226         -42.5616         47.5218       -0.0310429         140.621
0.643                   -5.13401         150.674         -42.4551         44.9082         -42.4551         44.9075       -0.0314641         140.533
0.644                   -5.23764          149.84         -42.3489         42.2918         -42.3489         42.2911       -0.0318938         140.444
0.645                   -5.34429         149.006          -42.243         39.6733         -42.2431         39.6726       -0.0323319         140.355
0.646                   -5.45405         148.173         -42.1376         37.0528         -42.1376         37.0522       -0.0327786         140.266
0.647                   -5.56698         147.341         -42.0326         34.4305         -42.0326           34.43       -0.0332339         140.176
0.648                   -5.68316         146.511          -41.928         31.8064          -41.928         31.8059       -0.0336978         140.086
0.649                   -5.80263         145.686         -41.8238         29.1807         -41.8239         29.1803       -0.0341702         139.996
0.65                    -5.92545         144.864         -41.7202         26.5534         -41.7202         26.5531        -0.034651         139.905
0.651                   -6.05166         144.049          -41.617         23.9248         -41.6171         23.9246       -0.0351401         139.814
0.652                   -6.18129          143.24         -41.5144         21.2949         -41.5145         21.2948       -0.0356374         139.723
0.653                   -6.31435         142.439         -41.4123          18.664         -41.4124         18.6639       -0.0361426         139.631
0.654                   -6.45085         141.647         -41.3108         16.0322         -41.3109         16.0322       -0.0366556         139.539
0.655                    -6.5908         140.866         -41.2099         13.3997           -41.21         13.3998       -0.0371763         139.446
0.656                   -6.73417         140.096         -41.1096         10.7666         -41.1097         10.7668       -0.0377043         139.353
0.657                   -6.88095         139.339         -41.0099         8.13328           -41.01         8.13355       -0.0382396          139.26
0.658                    -7.0311         138.595         -40.9109         5.49982         -40.9109         5.50017        -0.038782         139.166
0.659                   -7.18458         137.867         -40.8124         2.86648         -40.8125          2.8669       -0.0393314         139.072
0.66                    -7.34133         137.155         -40.7147        0.233459         -40.7147        0.233943       -0.0398878         138.978
0.661                   -7.50128         136.461         -40.6175        -2.39901         -40.6176        -2.39847       -0.0404509         138.883
0.662                   -7.66437         135.785          -40.521         -5.0307         -40.5211        -5.03011        -0.041021         138.788
0.663                    -7.8305         135.129         -40.4252        -7.66139         -40.4253        -7.66076        -0.041598         138.692
0.664                   -7.99957         134.495           -40.33        -10.2908         -40.3301        -10.2902        -0.042182         138.596
0.665                   -8.17147         133.883         -40.2355        -12.9188         -40.2355        -12.9182       -0.0427731         138.499
0.666                   -8.34609         133.294         -40.1416        -15.5452         -40.1416        -15.5445       -0.0433716         138.402
0.667                   -8.52329         132.731         -40.0483        -18.1696         -40.0484        -18.1689       -0.0439776         138.305
0.668                   -8.70293         132.192         -39.9557        -20.7918         -39.9557        -20.7911       -0.0445913         138.207
0.669                   -8.88483         131.681         -39.8636        -23.4118         -39.8636        -23.4111       -0.0452132         138.108
0.67                    -9.06884         131.198         -39.7721        -26.0292         -39.7721        -26.0285       -0.0458434         138.009
0.671                   -9.25478         130.744         -39.6812        -28.6438         -39.6812        -28.6432       -0.0464823          137.91
0.672                   -9.44243         130.319         -39.5908        -31.2556         -39.5908         -31.255       -0.0471304          137.81
0.673                   -9.63159         129.925         -39.5009        -33.8642         -39.5009        -33.8636        -0.047788         137.709
0.674                   -9.82203         129.563         -39.4115        -36.4695         -39.4116         -36.469       -0.0484555         137.608
0.675                   -10.0135         129.234         -39.3226        -39.0713         -39.3226        -39.0709       -0.0491333         137.507
0.676                   -10.2058         128.937         -39.2341        -41.6696         -39.2342        -41.6692        -0.049822         137.404
0.677                   -10.3986         128.675         -39.1461        -44.2641         -39.1461        -44.2638       -0.0505219         137.302
0.678                   -10.5916         128.446         -39.0583        -46.8548         -39.0584        -46.8545       -0.0512336         137.199
0.679                   -10.7845         128.252          -38.971        -49.4415          -38.971        -49.4413       -0.0519577         137.095
0.68                    -10.9771         128.092         -38.8839        -52.0241         -38.8839        -52.0239       -0.0526945          136.99
0.681                   -11.1691         127.967         -38.7971        -54.6026         -38.7971        -54.6025       -0.0534446         136.885
0.682                     -11.36         127.877         -38.7105        -57.1768         -38.7105        -57.1768       -0.0542087          136.78
0.683                   -11.5496         127.821         -38.6241        -59.7468         -38.6241        -59.7469       -0.0549872         136.673
0.684                   -11.7375         127.798         -38.5378        -62.3126         -38.5379        -62.3127       -0.0557808         136.567
0.685                   -11.9235         127.808         -38.4517        -64.8739         -38.4517        -64.8741         -0.05659         136.459
0.686                   -12.1072          127.85         -38.3656         -67.431         -38.3657        -67.4313       -0.0574156         136.351
0.687                   -12.2883         127.923         -38.2796        -69.9838         -38.2796        -69.9841       -0.0582581         136.242
0.688                   -12.4666         128.026         -38.1935        -72.5323         -38.1936        -72.5326       -0.0591181         136.133
0.689                   -12.6416         128.156         -38.1074        -75.0765         -38.1075        -75.0769       -0.0599965         136.022
0.69                    -12.8133         128.312         -38.0212        -77.6166         -38.0213         -77.617       -0.0608939         135.911
0.691                   -12.9814         128.492         -37.9349        -80.1526          -37.935        -80.1531        -0.061811           135.8
0.692                   -13.1456         128.694         -37.8484        -82.6845         -37.8485        -82.6851       -0.0627487         135.687
0.693                   -13.3059         128.916         -37.7617        -85.2126         -37.7618        -85.2131       -0.0637076         135.574
0.694                   -13.4621         129.155         -37.6747        -87.7369         -37.6749        -87.7374       -0.0646886         135.461
0.695                   -13.6141         129.409         -37.5875        -90.2575         -37.5876        -90.2581       -0.0656927         135.346
0.696                    -13.762         129.675            -37.5        -92.7746         -37.5001        -92.7752       -0.0667205         135.231
0.697                   -13.9058         129.952         -37.4121        -95.2884         -37.4122        -95.2889       -0.0677732         135.114