! TOUCHSTONE file generated by CST MICROWAVE STUDIO
! Date and time: Mon Sep 28 14:06:56 2020
! Project name: Scenario_1_Free_SPace.cst
! Parameters = {dx1=294.5; L_HA=400; MT=2.54; Rad_Dielectric=30; Rad_Lower=7.3; Rad_Upper=30; a_HA=580; a_WG=246; b_HA=500; b_WG=121; c_HA=0; c_WG=187; d_feed=85; h_feed=15; h_lower=18; h_upper=40}
! Header version: 2018
! Port assignment regex: !\s*Touchstone port\s*([0-9]+)\s*=\s*(CST MWS port|CST DS port)\s*([0-9]+|Zmin|Zmax)\s*\(\"(.*)\"\)(\s*mode\s*([0-9]+))?.*
! Touchstone port assignment:
! Touchstone port 1 = CST MWS port 1 ("")
! Touchstone port 2 = CST MWS port 2 ("")
# GHz S DB R 50
0.5                    -0.141435        -122.747         -58.1975           107.9         -58.1975           107.9      -0.00645838          151.13
0.501                  -0.146707        -123.187         -57.9926         106.546         -57.9925         106.546      -0.00651482         151.064
0.502                  -0.152109         -123.63         -57.7878         105.189         -57.7877         105.189      -0.00657306         150.999
0.503                  -0.157645        -124.074         -57.5831         103.828          -57.583         103.829      -0.00663311         150.933
0.504                  -0.163323        -124.522         -57.3786         102.464         -57.3784         102.465      -0.00669498         150.867
0.505                  -0.169151        -124.972         -57.1741         101.096          -57.174         101.097      -0.00675867         150.802
0.506                  -0.175134        -125.424         -56.9698         99.7235         -56.9696         99.7247      -0.00682418         150.736
0.507                  -0.181281        -125.879         -56.7656         98.3464         -56.7654         98.3478      -0.00689152          150.67
0.508                    -0.1876        -126.336         -56.5615         96.9644         -56.5613          96.966       -0.0069607         150.604
0.509                  -0.194098        -126.796         -56.3576         95.5775         -56.3573         95.5792      -0.00703171         150.538
0.51                   -0.200785        -127.259         -56.1538         94.1852         -56.1535          94.187      -0.00710458         150.471
0.511                  -0.207668        -127.724         -55.9501         92.7874         -55.9498         92.7893      -0.00717929         150.405
0.512                  -0.214756        -128.192         -55.7465         91.3839         -55.7462         91.3859      -0.00725586         150.339
0.513                   -0.22206        -128.663         -55.5431         89.9743         -55.5428         89.9764      -0.00733429         150.272
0.514                  -0.229588        -129.136         -55.3399         88.5586         -55.3396         88.5607      -0.00741459         150.206
0.515                   -0.23735        -129.612         -55.1368         87.1364         -55.1365         87.1386      -0.00749675         150.139
0.516                  -0.245356        -130.091         -54.9339         85.7076         -54.9336         85.7098      -0.00758079         150.073
0.517                  -0.253616        -130.573         -54.7312         84.2719         -54.7308         84.2742       -0.0076667         150.006
0.518                  -0.262141        -131.057         -54.5287         82.8292         -54.5283         82.8316       -0.0077545         149.939
0.519                  -0.270942        -131.544         -54.3264         81.3793          -54.326         81.3817      -0.00784417         149.872
0.52                   -0.280029        -132.034         -54.1243          79.922         -54.1239         79.9243      -0.00793574         149.805
0.521                  -0.289413        -132.527         -53.9225          78.457         -53.9221         78.4594       -0.0080292         149.738
0.522                  -0.299106        -133.022         -53.7209         76.9843         -53.7205         76.9867      -0.00812454         149.671
0.523                  -0.309118         -133.52         -53.5196         75.5037         -53.5193         75.5061      -0.00822178         149.604
0.524                  -0.319462        -134.021         -53.3186          74.015         -53.3183         74.0173      -0.00832092         149.536
0.525                  -0.330149        -134.524          -53.118          72.518         -53.1176         72.5203      -0.00842196         149.469
0.526                  -0.341189        -135.031         -52.9177         71.0126         -52.9173         71.0149      -0.00852489         149.401
0.527                  -0.352596         -135.54         -52.7177         69.4987         -52.7173          69.501      -0.00862973         149.334
0.528                  -0.364381        -136.051         -52.5181         67.9761         -52.5178         67.9784      -0.00873646         149.266
0.529                  -0.376554        -136.566          -52.319         66.4448         -52.3187          66.447      -0.00884509         149.198
0.53                   -0.389128        -137.083         -52.1203         64.9045           -52.12         64.9068      -0.00895562         149.131
0.531                  -0.402114        -137.602         -51.9221         63.3553         -51.9217         63.3575      -0.00906804         149.063
0.532                  -0.415523        -138.124         -51.7244          61.797          -51.724         61.7991      -0.00918235         148.995
0.533                  -0.429366        -138.649         -51.5272         60.2296         -51.5269         60.2316      -0.00929855         148.926
0.534                  -0.443653        -139.176         -51.3306         58.6529         -51.3302         58.6549      -0.00941664         148.858
0.535                  -0.458395        -139.705         -51.1346         57.0669         -51.1342         57.0688      -0.00953661          148.79
0.536                  -0.473602        -140.237         -50.9392         55.4716         -50.9389         55.4735      -0.00965845         148.722
0.537                  -0.489283        -140.771         -50.7445         53.8669         -50.7442         53.8687      -0.00978215         148.653
0.538                  -0.505448        -141.307         -50.5505         52.2528         -50.5502         52.2546      -0.00990772         148.584
0.539                  -0.522105        -141.846         -50.3572         50.6293         -50.3569         50.6311       -0.0100351         148.516
0.54                   -0.539262        -142.386         -50.1647         48.9965         -50.1644         48.9982       -0.0101644         148.447
0.541                  -0.556926        -142.929          -49.973         47.3543         -49.9728         47.3559       -0.0102955         148.378
0.542                  -0.575105        -143.474         -49.7822         45.7027          -49.782         45.7043       -0.0104283         148.309
0.543                  -0.593804         -144.02         -49.5923         44.0419         -49.5921         44.0434        -0.010563          148.24
0.544                  -0.613028        -144.568         -49.4034         42.3718         -49.4031         42.3733       -0.0106995         148.171
0.545                  -0.632782        -145.118         -49.2154         40.6926         -49.2151          40.694       -0.0108377         148.102
0.546                  -0.653069         -145.67         -49.0284         39.0044         -49.0281         39.0057       -0.0109777         148.032
0.547                  -0.673893        -146.223         -48.8424         37.3072         -48.8422         37.3085       -0.0111194         147.963
0.548                  -0.695254        -146.777         -48.6576         35.6012         -48.6574         35.6024       -0.0112627         147.893
0.549                  -0.717154        -147.333         -48.4739         33.8866         -48.4737         33.8878       -0.0114078         147.823
0.55                   -0.739592         -147.89         -48.2914         32.1635         -48.2912         32.1646       -0.0115545         147.754
0.551                  -0.762567        -148.448         -48.1101          30.432         -48.1099         30.4331       -0.0117027         147.684
0.552                  -0.786078        -149.008         -47.9301         28.6925         -47.9298         28.6935       -0.0118526         147.614
0.553                   -0.81012        -149.568         -47.7513          26.945         -47.7511          26.946        -0.012004         147.544
0.554                  -0.834689        -150.129         -47.5739         25.1899         -47.5737         25.1908       -0.0121568         147.473
0.555                  -0.859781        -150.691         -47.3978         23.4273         -47.3976         23.4282       -0.0123111         147.403
0.556                  -0.885388        -151.254         -47.2231         21.6576         -47.2229         21.6584       -0.0124668         147.333
0.557                  -0.911504        -151.818         -47.0498         19.8809         -47.0497         19.8817       -0.0126239         147.262
0.558                   -0.93812        -152.382          -46.878         18.0976         -46.8779         18.0984       -0.0127822         147.191
0.559                  -0.965227        -152.947         -46.7077          16.308         -46.7076         16.3087       -0.0129418         147.121
0.56                   -0.992815        -153.512         -46.5389         14.5125         -46.5388         14.5131       -0.0131025          147.05
0.561                   -1.02087        -154.077         -46.3717         12.7112         -46.3715         12.7118       -0.0132643         146.979
0.562                   -1.04939        -154.643         -46.2059         10.9046         -46.2058         10.9052       -0.0134271         146.908
0.563                   -1.07835        -155.209         -46.0418         9.09305         -46.0417         9.09358       -0.0135908         146.836
0.564                   -1.10775        -155.776         -45.8793         7.27685         -45.8791         7.27735       -0.0137554         146.765
0.565                   -1.13756        -156.343         -45.7183          5.4564         -45.7182         5.45686       -0.0139208         146.694
0.566                   -1.16778         -156.91          -45.559         3.63206         -45.5589         3.63249       -0.0140868         146.622
0.567                   -1.19838        -157.477         -45.4013         1.80422         -45.4012         1.80461       -0.0142534          146.55
0.568                   -1.22937        -158.045         -45.2453       -0.026747         -45.2451      -0.0263789       -0.0144205         146.478
0.569                   -1.26071        -158.612         -45.0909        -1.86044         -45.0907         -1.8601       -0.0145878         146.406
0.57                    -1.29239         -159.18         -44.9381        -3.69648         -44.9379        -3.69617       -0.0147554         146.334
0.571                   -1.32441        -159.749         -44.7869        -5.53447         -44.7868        -5.53419       -0.0149231         146.262
0.572                   -1.35674        -160.317         -44.6374        -7.37402         -44.6373        -7.37376       -0.0150908          146.19
0.573                   -1.38936        -160.886         -44.4895        -9.21475         -44.4894        -9.21451       -0.0152583         146.117
0.574                   -1.42227        -161.455         -44.3432        -11.0563         -44.3431        -11.0561       -0.0154255         146.045
0.575                   -1.45545        -162.025         -44.1985        -12.8982         -44.1984         -12.898       -0.0155922         145.972
0.576                   -1.48888        -162.595         -44.0554        -14.7402         -44.0553          -14.74       -0.0157583         145.899
0.577                   -1.52255        -163.166         -43.9138        -16.5818         -43.9137        -16.5816       -0.0159237         145.826
0.578                   -1.55645        -163.738         -43.7738        -18.4227         -43.7736        -18.4226       -0.0160881         145.753
0.579                   -1.59056         -164.31         -43.6352        -20.2627         -43.6351        -20.2626       -0.0162515          145.68
0.58                    -1.62488        -164.884         -43.4981        -22.1012          -43.498        -22.1011       -0.0164137         145.606
0.581                   -1.65938        -165.458         -43.3625        -23.9381         -43.3624         -23.938       -0.0165744         145.533
0.582                   -1.69407        -166.033         -43.2283        -25.7729         -43.2282        -25.7728       -0.0167336         145.459
0.583                   -1.72893         -166.61         -43.0954        -27.6054         -43.0953        -27.6054       -0.0168911         145.385
0.584                   -1.76395        -167.188         -42.9639        -29.4353         -42.9638        -29.4353       -0.0170468         145.311
0.585                   -1.79914        -167.768         -42.8337        -31.2624         -42.8336        -31.2624       -0.0172005         145.237
0.586                   -1.83447        -168.349         -42.7048        -33.0864         -42.7047        -33.0864       -0.0173522         145.163
0.587                   -1.86995        -168.932          -42.577         -34.907         -42.5769         -34.907       -0.0175016         145.088
0.588                   -1.90558        -169.518         -42.4505         -36.724         -42.4503         -36.724       -0.0176488         145.013
0.589                   -1.94136        -170.105          -42.325        -38.5372         -42.3249        -38.5373       -0.0177935         144.938
0.59                    -1.97727        -170.695         -42.2006        -40.3465         -42.2005        -40.3466       -0.0179359         144.863
0.591                   -2.01334        -171.287         -42.0773        -42.1517         -42.0772        -42.1517       -0.0180759         144.788
0.592                   -2.04955        -171.882         -41.9549        -43.9526         -41.9548        -43.9526       -0.0182135         144.713
0.593                   -2.08591         -172.48         -41.8335        -45.7491         -41.8334        -45.7491       -0.0183487         144.637
0.594                   -2.12243        -173.081          -41.713         -47.541         -41.7129        -47.5411       -0.0184817         144.561
0.595                   -2.15911        -173.685         -41.5933        -49.3283         -41.5932        -49.3284       -0.0186125         144.485
0.596                   -2.19597        -174.292         -41.4744         -51.111         -41.4743         -51.111       -0.0187413         144.409
0.597                   -2.23301        -174.904         -41.3562        -52.8888         -41.3561        -52.8889       -0.0188684         144.333
0.598                   -2.27025        -175.519         -41.2387        -54.6619         -41.2386         -54.662        -0.018994         144.256
0.599                   -2.30769        -176.138         -41.1219        -56.4301         -41.1218        -56.4302       -0.0191184         144.179
0.6                     -2.34536        -176.761         -41.0056        -58.1935         -41.0055        -58.1936        -0.019242         144.102
0.601                   -2.38327        -177.389         -40.8899        -59.9521         -40.8898        -59.9522       -0.0193651         144.025
0.602                   -2.42144        -178.021         -40.7747        -61.7058         -40.7746        -61.7059       -0.0194883         143.947
0.603                   -2.45989        -178.658           -40.66        -63.4548         -40.6599        -63.4549       -0.0196119         143.869
0.604                   -2.49864          -179.3         -40.5457         -65.199         -40.5456        -65.1991       -0.0197366         143.791
0.605                   -2.53772        -179.947         -40.4317        -66.9386         -40.4316        -66.9387       -0.0198629         143.713
0.606                   -2.57714           179.4         -40.3181        -68.6735          -40.318        -68.6736       -0.0199914         143.635
0.607                   -2.61694         178.742         -40.2047         -70.404         -40.2046        -70.4041       -0.0201226         143.556
0.608                   -2.65715         178.078         -40.0916        -72.1301         -40.0915        -72.1302       -0.0202572         143.477
0.609                   -2.69778         177.408         -39.9787        -73.8519         -39.9786        -73.8519       -0.0203958         143.398
0.61                    -2.73888         176.732         -39.8659        -75.5695         -39.8659        -75.5696       -0.0205391         143.318
0.611                   -2.78048         176.049         -39.7533        -77.2831         -39.7533        -77.2831       -0.0206876         143.238
0.612                   -2.82262          175.36         -39.6408        -78.9928         -39.6408        -78.9929       -0.0208419         143.158
0.613                   -2.86532         174.665         -39.5284        -80.6988         -39.5283        -80.6988       -0.0210026         143.078
0.614                   -2.90864         173.962          -39.416        -82.4012         -39.4159        -82.4013       -0.0211702         142.997
0.615                    -2.9526         173.253         -39.3036        -84.1003         -39.3035        -84.1003       -0.0213452         142.916
0.616                   -2.99726         172.536         -39.1912        -85.7961         -39.1911        -85.7961       -0.0215281         142.835
0.617                   -3.04265         171.812         -39.0787        -87.4889         -39.0787        -87.4889       -0.0217192         142.754
0.618                   -3.08883         171.081         -38.9662        -89.1788         -38.9661        -89.1788       -0.0219188         142.672
0.619                   -3.13584         170.342         -38.8536        -90.8662         -38.8535        -90.8661       -0.0221274          142.59
0.62                    -3.18372         169.595         -38.7408         -92.551         -38.7408         -92.551        -0.022345         142.508
0.621                   -3.23254          168.84         -38.6279        -94.2337         -38.6279        -94.2337       -0.0225719         142.426
0.622                   -3.28235         168.077         -38.5149        -95.9143         -38.5148        -95.9143       -0.0228082         142.343
0.623                   -3.33321         167.306         -38.4017        -97.5932         -38.4016        -97.5931        -0.023054          142.26
0.624                   -3.38516         166.527         -38.2883        -99.2704         -38.2883        -99.2703       -0.0233094         142.177
0.625                   -3.43828         165.739         -38.1747        -100.946         -38.1747        -100.946       -0.0235742         142.093
0.626                   -3.49263         164.942          -38.061        -102.621         -38.0609        -102.621       -0.0238485          142.01
0.627                   -3.54827         164.137          -37.947        -104.295         -37.9469        -104.295       -0.0241321         141.926
0.628                   -3.60527         163.323         -37.8328        -105.968         -37.8327        -105.968       -0.0244249         141.841
0.629                    -3.6637           162.5         -37.7183        -107.641         -37.7183         -107.64       -0.0247268         141.757
0.63                    -3.72363         161.669         -37.6037        -109.313         -37.6037        -109.313       -0.0250376         141.672
0.631                   -3.78514         160.828         -37.4888        -110.985         -37.4888        -110.985        -0.025357         141.587
0.632                   -3.84832         159.979         -37.3737        -112.658         -37.3737        -112.658       -0.0256849         141.502
0.633                   -3.91323          159.12         -37.2584        -114.331         -37.2584        -114.331        -0.026021         141.416
0.634                   -3.97996         158.253         -37.1429        -116.005         -37.1429        -116.004       -0.0263651          141.33
0.635                   -4.04861         157.376         -37.0271        -117.679         -37.0271        -117.679       -0.0267169         141.244
0.636                   -4.11925          156.49         -36.9112        -119.355         -36.9112        -119.354       -0.0270761         141.157
0.637                   -4.19199         155.595          -36.795        -121.031          -36.795        -121.031       -0.0274425         141.071
0.638                   -4.26692         154.691         -36.6787         -122.71         -36.6787         -122.71       -0.0278158         140.984
0.639                   -4.34414         153.778         -36.5622         -124.39         -36.5622         -124.39       -0.0281958         140.896
0.64                    -4.42375         152.857         -36.4455        -126.072         -36.4455        -126.071       -0.0285821         140.809
0.641                   -4.50585         151.926         -36.3287        -127.756         -36.3287        -127.755       -0.0289745         140.721
0.642                   -4.59057         150.987         -36.2118        -129.442         -36.2118        -129.442       -0.0293727         140.633
0.643                     -4.678          150.04         -36.0948        -131.131         -36.0948         -131.13       -0.0297765         140.544
0.644                   -4.76827         149.084         -35.9777        -132.822         -35.9777        -132.821       -0.0301856         140.455
0.645                    -4.8615          148.12         -35.8605        -134.516         -35.8605        -134.516       -0.0305996         140.366
0.646                    -4.9578         147.148         -35.7433        -136.213         -35.7433        -136.212       -0.0310185         140.276
0.647                   -5.05732         146.169         -35.6261        -137.913         -35.6261        -137.912       -0.0314419         140.187
0.648                   -5.16018         145.182         -35.5089        -139.616         -35.5089        -139.616       -0.0318695         140.096
0.649                   -5.26651         144.188         -35.3917        -141.323         -35.3917        -141.322       -0.0323013         140.006
0.65                    -5.37646         143.188         -35.2746        -143.032         -35.2747        -143.032       -0.0327369         139.915
0.651                   -5.49017         142.182         -35.1577        -144.746         -35.1577        -144.746       -0.0331762         139.824
0.652                   -5.60779          141.17         -35.0408        -146.463         -35.0408        -146.463       -0.0336191         139.732
0.653                   -5.72947         140.152         -34.9241        -148.184         -34.9241        -148.184       -0.0340656          139.64
0.654                   -5.85537          139.13         -34.8076        -149.909         -34.8076        -149.908       -0.0345157         139.548
0.655                   -5.98564         138.104         -34.6913        -151.637         -34.6913        -151.637       -0.0349696         139.455
0.656                   -6.12046         137.074         -34.5753        -153.369         -34.5753        -153.369       -0.0354276         139.362
0.657                   -6.25999         136.042         -34.4596        -155.105         -34.4596        -155.105       -0.0358903         139.268
0.658                   -6.40442         135.008         -34.3442        -156.846         -34.3442        -156.845       -0.0363587         139.174
0.659                   -6.55391         133.973         -34.2292         -158.59         -34.2292        -158.589       -0.0368338         139.079
0.66                    -6.70866         132.938         -34.1146        -160.337         -34.1146        -160.337       -0.0373173         138.984
0.661                   -6.86886         131.904         -34.0004        -162.089         -34.0004        -162.089       -0.0378114         138.888
0.662                    -7.0347         130.872         -33.8867        -163.845         -33.8867        -163.844       -0.0383186         138.792
0.663                   -7.20637         129.843         -33.7735        -165.604         -33.7735        -165.604       -0.0388419         138.696
0.664                    -7.3841         128.819         -33.6608        -167.367         -33.6608        -167.367       -0.0393849         138.598
0.665                   -7.56809           127.8         -33.5488        -169.134         -33.5488        -169.133       -0.0399511         138.501
0.666                   -7.75856         126.789         -33.4373        -170.904         -33.4373        -170.903       -0.0405439         138.403
0.667                   -7.95572         125.787         -33.3265        -172.677         -33.3265        -172.677       -0.0411662         138.304
0.668                   -8.15982         124.796         -33.2163        -174.454         -33.2163        -174.453       -0.0418198         138.205
0.669                   -8.37109         123.818         -33.1069        -176.233         -33.1069        -176.233       -0.0425052         138.105
0.67                    -8.58977         122.855         -32.9982        -178.016         -32.9982        -178.016       -0.0432214         138.005
0.671                    -8.8161         121.909         -32.8902        -179.801         -32.8902        -179.801       -0.0439656         137.905
0.672                   -9.05035         120.983         -32.7831         178.411         -32.7831         178.411       -0.0447343         137.804
0.673                   -9.29276          120.08         -32.6767         176.621         -32.6767         176.621       -0.0455228         137.703
0.674                   -9.54362         119.202         -32.5712         174.829         -32.5712         174.829       -0.0463266         137.601
0.675                   -9.80317         118.352         -32.4666         173.035         -32.4666         173.035       -0.0471412         137.499
0.676                   -10.0717         117.536         -32.3628         171.239         -32.3629         171.239       -0.0479631         137.397
0.677                   -10.3495         116.755           -32.26         169.442           -32.26         169.443       -0.0487893         137.294
0.678                   -10.6368         116.016          -32.158         167.644          -32.158         167.645       -0.0496182         137.191
0.679                   -10.9338         115.322          -32.057         165.846          -32.057         165.846       -0.0504485         137.087
0.68                     -11.241         114.679         -31.9569         164.046         -31.9569         164.046         -0.05128         136.983
0.681                   -11.5584         114.093         -31.8577         162.247         -31.8578         162.247       -0.0521129         136.878
0.682                   -11.8863         113.571         -31.7595         160.447         -31.7595         160.447       -0.0529477         136.773
0.683                   -12.2249          113.12         -31.6622         158.648         -31.6623         158.648       -0.0537854         136.667
0.684                   -12.5743         112.748         -31.5659          156.85         -31.5659          156.85       -0.0546269         136.561
0.685                   -12.9347         112.464         -31.4705         155.052         -31.4705         155.052       -0.0554733         136.454
0.686                    -13.306         112.279         -31.3761         153.256         -31.3761         153.256       -0.0563257         136.346
0.687                    -13.688         112.203         -31.2825         151.462         -31.2825         151.462       -0.0571852         136.237
0.688                   -14.0805         112.251         -31.1899         149.669         -31.1899         149.669        -0.058053         136.128
0.689                    -14.483         112.435         -31.0981         147.878         -31.0982         147.878         -0.05893         136.018
0.69                    -14.8947         112.771         -31.0073          146.09         -31.0073          146.09       -0.0598172         135.908
0.691                   -15.3145         113.277         -30.9173         144.305         -30.9173         144.305       -0.0607156         135.797
0.692                   -15.7409          113.97         -30.8281         142.522         -30.8281         142.522       -0.0616262         135.685
0.693                   -16.1717         114.869         -30.7397         140.743         -30.7397         140.743       -0.0625498         135.572
0.694                   -16.6042         115.995         -30.6521         138.968         -30.6521         138.968       -0.0634872         135.459
0.695                   -17.0348         117.366         -30.5652         137.196         -30.5653         137.196       -0.0644394         135.344
0.696                   -17.4589         119.002         -30.4791         135.428         -30.4791         135.428       -0.0654071         135.229
0.697                   -17.8709         120.917         -30.3936         133.665         -30.3936         133.665       -0.0663911         135.114