! TOUCHSTONE file generated by CST MICROWAVE STUDIO
! Date and time: Mon Sep 28 14:07:14 2020
! Project name: Scenario_1_Free_SPace.cst
! Parameters = {dx1=311.8; L_HA=400; MT=2.54; Rad_Dielectric=30; Rad_Lower=7.3; Rad_Upper=30; a_HA=580; a_WG=246; b_HA=500; b_WG=121; c_HA=0; c_WG=187; d_feed=85; h_feed=15; h_lower=18; h_upper=40}
! Header version: 2018
! Port assignment regex: !\s*Touchstone port\s*([0-9]+)\s*=\s*(CST MWS port|CST DS port)\s*([0-9]+|Zmin|Zmax)\s*\(\"(.*)\"\)(\s*mode\s*([0-9]+))?.*
! Touchstone port assignment:
! Touchstone port 1 = CST MWS port 1 ("")
! Touchstone port 2 = CST MWS port 2 ("")
# GHz S DB R 50
0.5                    -0.141266        -122.795         -58.4402         99.0893         -58.4402         99.0893      -0.00648132         151.126
0.501                  -0.146806        -123.258         -58.3202         97.5964          -58.321         97.5881       -0.0065574          151.06
0.502                  -0.152588        -123.723         -58.1956         96.1029         -58.1971         96.0865       -0.0066347         150.995
0.503                  -0.158613         -124.19         -58.0665         94.6094         -58.0687         94.5851      -0.00671321         150.929
0.504                  -0.164883        -124.657         -57.9329         93.1162         -57.9357         93.0844      -0.00679292         150.863
0.505                    -0.1714        -125.127         -57.7947         91.6237         -57.7982         91.5846      -0.00687385         150.798
0.506                  -0.178164        -125.597         -57.6521         90.1323         -57.6562         90.0863      -0.00695596         150.732
0.507                  -0.185178         -126.07         -57.5051         88.6422         -57.5097         88.5896      -0.00703927         150.666
0.508                  -0.192443        -126.544         -57.3537         87.1537         -57.3588         87.0949      -0.00712376           150.6
0.509                  -0.199959        -127.019         -57.1979          85.667         -57.2036         85.6023      -0.00720944         150.534
0.51                   -0.207729        -127.496         -57.0379         84.1821          -57.044          84.112      -0.00729628         150.467
0.511                  -0.215754        -127.974         -56.8736         82.6992         -56.8802          82.624      -0.00738429         150.401
0.512                  -0.224036        -128.453         -56.7052         81.2182         -56.7122         81.1384      -0.00747346         150.335
0.513                  -0.232575        -128.935         -56.5327         79.7391           -56.54         79.6552      -0.00756378         150.269
0.514                  -0.241372        -129.417         -56.3561         78.2619         -56.3638         78.1741      -0.00765525         150.202
0.515                  -0.250431        -129.901         -56.1756         76.7862         -56.1836         76.6952      -0.00774785         150.136
0.516                   -0.25975        -130.387         -55.9911         75.3119         -55.9994         75.2181      -0.00784159         150.069
0.517                  -0.269333        -130.874         -55.8029         73.8388         -55.8114         73.7426      -0.00793645         150.002
0.518                   -0.27918        -131.363         -55.6108         72.3664         -55.6197         72.2683      -0.00803243         149.935
0.519                  -0.289293        -131.853         -55.4151         70.8943         -55.4242         70.7948      -0.00812951         149.869
0.52                   -0.299672        -132.345         -55.2158          69.422         -55.2251         69.3217      -0.00822769         149.802
0.521                   -0.31032        -132.838          -55.013         67.9492         -55.0224         67.8484      -0.00832697         149.735
0.522                  -0.321237        -133.332         -54.8068          66.475         -54.8163         66.3743      -0.00842733         149.668
0.523                  -0.332424        -133.828         -54.5972         64.9989         -54.6068         64.8987      -0.00852876           149.6
0.524                  -0.343883        -134.326         -54.3844         63.5203         -54.3941          63.421      -0.00863126         149.533
0.525                  -0.355616        -134.825         -54.1684         62.0382         -54.1781         61.9405      -0.00873482         149.466
0.526                  -0.367623        -135.326         -53.9493          60.552          -53.959         60.4562      -0.00883943         149.398
0.527                  -0.379906        -135.828         -53.7273         59.0608          -53.737         58.9673      -0.00894508         149.331
0.528                  -0.392465        -136.332         -53.5024         57.5636         -53.5121         57.4729      -0.00905175         149.263
0.529                  -0.405303        -136.837         -53.2748         56.0595         -53.2843         55.9721      -0.00915945         149.195
0.53                    -0.41842        -137.344         -53.0446         54.5476          -53.054         54.4637      -0.00926816         149.128
0.531                  -0.431818        -137.852         -52.8119         53.0268          -52.821         52.9469      -0.00937787          149.06
0.532                  -0.445497        -138.362         -52.5768          51.496         -52.5857         51.4205      -0.00948857         148.992
0.533                   -0.45946        -138.874         -52.3395         49.9542         -52.3481         49.8834      -0.00960025         148.924
0.534                  -0.473707        -139.387         -52.1001         48.4002         -52.1083         48.3344      -0.00971289         148.856
0.535                   -0.48824        -139.901         -51.8588         46.8329         -51.8665         46.7724       -0.0098265         148.787
0.536                   -0.50306        -140.417         -51.6157         45.2512          -51.623         45.1962      -0.00994105         148.719
0.537                  -0.518167        -140.935          -51.371         43.6539         -51.3778         43.6047       -0.0100565         148.651
0.538                  -0.533565        -141.455          -51.125         42.0399         -51.1311         41.9966        -0.010173         148.582
0.539                  -0.549253        -141.976         -50.8777          40.408         -50.8832         40.3707       -0.0102903         148.513
0.54                   -0.565233        -142.498         -50.6295         38.7571         -50.6342          38.726       -0.0104085         148.445
0.541                  -0.581506        -143.022         -50.3806         37.0863         -50.3844         37.0613       -0.0105276         148.376
0.542                  -0.598075        -143.548         -50.1311         35.3943         -50.1341         35.3754       -0.0106476         148.307
0.543                  -0.614939        -144.076         -49.8814         33.6803         -49.8834         33.6675       -0.0107685         148.238
0.544                  -0.632101        -144.605         -49.6317         31.9433         -49.6326         31.9364       -0.0108902         148.169
0.545                  -0.649562        -145.136         -49.3823         30.1826         -49.3821         30.1814       -0.0110127           148.1
0.546                  -0.667324        -145.669         -49.1335         28.3974         -49.1322         28.4016       -0.0111361          148.03
0.547                  -0.685387        -146.203         -48.8857         26.5871          -48.883         26.5964       -0.0112603         147.961
0.548                  -0.703754        -146.739          -48.639         24.7512         -48.6351         24.7653       -0.0113853         147.891
0.549                  -0.722426        -147.277          -48.394         22.8895         -48.3886         22.9077       -0.0115111         147.822
0.55                   -0.741405        -147.816         -48.1508         21.0017          -48.144         21.0236       -0.0116376         147.752
0.551                  -0.760691        -148.358           -47.91         19.0878         -47.9016         19.1129       -0.0117649         147.682
0.552                  -0.780288        -148.901         -47.6717         17.1481         -47.6618         17.1757        -0.011893         147.612
0.553                  -0.800196        -149.446         -47.4364          15.183          -47.425         15.2124       -0.0120217         147.542
0.554                  -0.820418        -149.993         -47.2045         13.1931         -47.1914         13.2235       -0.0121512         147.472
0.555                  -0.840956        -150.541         -46.9762         11.1792         -46.9615         11.2099       -0.0122814         147.401
0.556                   -0.86181        -151.092          -46.752         9.14237         -46.7357         9.17253       -0.0124123         147.331
0.557                  -0.882984        -151.644         -46.5321         7.08394         -46.5142         7.11273       -0.0125439          147.26
0.558                  -0.904479        -152.198         -46.3169         5.00541         -46.2975         5.03197       -0.0126761          147.19
0.559                  -0.926298        -152.755         -46.1066          2.9085         -46.0857         2.93199        -0.012809         147.119
0.56                   -0.948442        -153.313         -45.9016         0.79512         -45.8792        0.814723       -0.0129425         147.048
0.561                  -0.970915        -153.873         -45.7021        -1.33261         -45.6783        -1.31769       -0.0130766         146.977
0.562                  -0.993718        -154.435         -45.5082        -3.47241         -45.4831        -3.46294       -0.0132114         146.906
0.563                   -1.01685            -155         -45.3201        -5.62188         -45.2938        -5.61856       -0.0133467         146.834
0.564                   -1.04033        -155.566          -45.138        -7.77849         -45.1106        -7.78195       -0.0134826         146.763
0.565                   -1.06414        -156.134         -44.9619        -9.93965         -44.9336        -9.95045       -0.0136191         146.691
0.566                   -1.08829        -156.705         -44.7919        -12.1027         -44.7628        -12.1213       -0.0137561          146.62
0.567                   -1.11278        -157.278          -44.628         -14.265         -44.5982        -14.2918       -0.0138937         146.548
0.568                   -1.13763        -157.853         -44.4702        -16.4238         -44.4398        -16.4592       -0.0140318         146.476
0.569                   -1.16282         -158.43         -44.3183        -18.5767         -44.2876        -18.6208       -0.0141705         146.404
0.57                    -1.18837         -159.01         -44.1723        -20.7211         -44.1413         -20.774       -0.0143096         146.332
0.571                   -1.21427        -159.591         -44.0319        -22.8547         -44.0008        -22.9163       -0.0144493         146.259
0.572                   -1.24054        -160.176          -43.897        -24.9752          -43.866        -25.0455       -0.0145894         146.187
0.573                   -1.26717        -160.762         -43.7674        -27.0806         -43.7365        -27.1594       -0.0147301         146.114
0.574                   -1.29417        -161.351         -43.6428        -29.1689         -43.6122         -29.256       -0.0148712         146.042
0.575                   -1.32155        -161.943          -43.523        -31.2386         -43.4928        -31.3335       -0.0150128         145.969
0.576                    -1.3493        -162.537         -43.4076        -33.2881         -43.3779        -33.3905       -0.0151549         145.896
0.577                   -1.37744        -163.133         -43.2963        -35.3162         -43.2673        -35.4256       -0.0152974         145.822
0.578                   -1.40596        -163.732         -43.1889        -37.3219         -43.1606        -37.4377       -0.0154404         145.749
0.579                   -1.43488        -164.334         -43.0849        -39.3043         -43.0575         -39.426       -0.0155839         145.676
0.58                     -1.4642        -164.939         -42.9842        -41.2628         -42.9577        -41.3899       -0.0157278         145.602
0.581                   -1.49392        -165.546         -42.8863        -43.1971         -42.8607        -43.3288       -0.0158722         145.528
0.582                   -1.52405        -166.156          -42.791        -45.1068         -42.7664        -45.2426       -0.0160171         145.454
0.583                    -1.5546        -166.769         -42.6978        -46.9919         -42.6744        -47.1312       -0.0161624          145.38
0.584                   -1.58557        -167.385         -42.6067        -48.8525         -42.5843        -48.9947       -0.0163083         145.306
0.585                   -1.61697        -168.004         -42.5172        -50.6889         -42.4959        -50.8334       -0.0164547         145.231
0.586                   -1.64882        -168.626          -42.429        -52.5015         -42.4088        -52.6476       -0.0166015         145.156
0.587                   -1.68111        -169.251          -42.342        -54.2908         -42.3229        -54.4379        -0.016749         145.082
0.588                   -1.71385        -169.879         -42.2558        -56.0573         -42.2378         -56.205        -0.016897         145.007
0.589                   -1.74705        -170.511         -42.1702        -57.8018         -42.1534        -57.9495       -0.0170456         144.932
0.59                    -1.78073        -171.146         -42.0851         -59.525         -42.0693        -59.6723       -0.0171948         144.856
0.591                   -1.81489        -171.784         -42.0001        -61.2278         -41.9855        -61.3741       -0.0173447         144.781
0.592                   -1.84954        -172.425         -41.9152        -62.9111         -41.9016        -63.0561       -0.0174952         144.705
0.593                   -1.88469         -173.07         -41.8302        -64.5757         -41.8176         -64.719       -0.0176466         144.629
0.594                   -1.92036        -173.719         -41.7448        -66.2227         -41.7332        -66.3639       -0.0177987         144.553
0.595                   -1.95655        -174.371          -41.659        -67.8531         -41.6483        -67.9918       -0.0179516         144.477
0.596                   -1.99327        -175.028         -41.5726        -69.4677         -41.5629        -69.6038       -0.0181055           144.4
0.597                   -2.03055        -175.687         -41.4855        -71.0677         -41.4767        -71.2008       -0.0182603         144.324
0.598                   -2.06839        -176.351         -41.3977         -72.654         -41.3897        -72.7839       -0.0184162         144.247
0.599                   -2.10681        -177.019         -41.3089        -74.2277         -41.3017        -74.3542       -0.0185732          144.17
0.6                     -2.14582        -177.691         -41.2192        -75.7897         -41.2128        -75.9126       -0.0187314         144.093
0.601                   -2.18544        -178.367         -41.1285        -77.3409         -41.1227        -77.4601        -0.018891         144.015
0.602                   -2.22569        -179.047         -41.0367        -78.8824         -41.0316        -78.9978       -0.0190519         143.938
0.603                   -2.26657        -179.732         -40.9438        -80.4152         -40.9393        -80.5266       -0.0192144          143.86
0.604                   -2.30812         179.579         -40.8496          -81.94         -40.8457        -82.0474       -0.0193785         143.782
0.605                   -2.35035         178.886         -40.7543        -83.4579         -40.7509        -83.5612       -0.0195444         143.703
0.606                   -2.39328         178.187         -40.6577        -84.9697         -40.6549        -85.0689       -0.0197122         143.625
0.607                   -2.43694         177.484         -40.5599        -86.4762         -40.5575        -86.5713        -0.019882         143.546
0.608                   -2.48134         176.777         -40.4608        -87.9783         -40.4588        -88.0693        -0.020054         143.467
0.609                    -2.5265         176.064         -40.3604        -89.4767         -40.3589        -89.5636       -0.0202284         143.388
0.61                    -2.57246         175.346         -40.2587        -90.9723         -40.2576        -91.0551       -0.0204054         143.308
0.611                   -2.61924         174.623         -40.1558        -92.4657          -40.155        -92.5446       -0.0205851         143.229
0.612                   -2.66687         173.895         -40.0516        -93.9578         -40.0511        -94.0326       -0.0207677         143.149
0.613                   -2.71537         173.162         -39.9461        -95.4491         -39.9459          -95.52       -0.0209534         143.069
0.614                   -2.76479         172.423         -39.8395        -96.9403         -39.8394        -97.0075       -0.0211425         142.988
0.615                   -2.81514         171.679         -39.7316        -98.4321         -39.7318        -98.4955       -0.0213352         142.908
0.616                   -2.86646         170.929         -39.6225        -99.9251         -39.6229        -99.9848       -0.0215316         142.827
0.617                    -2.9188         170.173         -39.5122         -101.42         -39.5128        -101.476       -0.0217321         142.746
0.618                   -2.97218         169.411         -39.4008        -102.917         -39.4015         -102.97       -0.0219369         142.664
0.619                   -3.02665         168.643         -39.2883        -104.417         -39.2891        -104.466       -0.0221462         142.582
0.62                    -3.08224          167.87         -39.1747         -105.92         -39.1756        -105.966       -0.0223603           142.5
0.621                   -3.13901          167.09         -39.0601        -107.427         -39.0611         -107.47       -0.0225796         142.418
0.622                   -3.19699         166.303         -38.9445        -108.938         -38.9456        -108.978       -0.0228042         142.336
0.623                   -3.25624         165.511         -38.8279        -110.454         -38.8291        -110.491       -0.0230344         142.253
0.624                    -3.3168         164.711         -38.7105        -111.975         -38.7116        -112.009       -0.0232707          142.17
0.625                   -3.37873         163.906         -38.5921        -113.501         -38.5933        -113.533       -0.0235131         142.087
0.626                   -3.44209         163.093          -38.473        -115.033         -38.4742        -115.062       -0.0237621         142.003
0.627                   -3.50693         162.274          -38.353        -116.572         -38.3542        -116.598       -0.0240179         141.919
0.628                   -3.57332         161.448         -38.2323        -118.117         -38.2335        -118.141       -0.0242808         141.835
0.629                   -3.64131         160.615          -38.111        -119.668         -38.1122         -119.69       -0.0245511          141.75
0.63                    -3.71099         159.775          -37.989        -121.227         -37.9902        -121.247       -0.0248292         141.666
0.631                   -3.78241         158.928         -37.8665        -122.792         -37.8676        -122.811       -0.0251152         141.581
0.632                   -3.85566         158.074         -37.7434        -124.366         -37.7445        -124.382       -0.0254095         141.495
0.633                   -3.93081         157.213         -37.6198        -125.947         -37.6209        -125.961       -0.0257123          141.41
0.634                   -4.00795         156.345         -37.4959        -127.535         -37.4968        -127.548       -0.0260239         141.324
0.635                   -4.08715         155.469         -37.3715        -129.132         -37.3725        -129.144       -0.0263446         141.237
0.636                   -4.16852         154.586         -37.2469        -130.737         -37.2478        -130.747       -0.0266745         141.151
0.637                   -4.25215         153.697          -37.122         -132.35         -37.1228        -132.359       -0.0270139         141.064
0.638                   -4.33813           152.8         -36.9969        -133.971         -36.9977        -133.979        -0.027363         140.977
0.639                   -4.42656         151.896         -36.8717        -135.601         -36.8724        -135.608        -0.027722         140.889
0.64                    -4.51757         150.986         -36.7464        -137.239          -36.747        -137.245        -0.028091         140.801
0.641                   -4.61125         150.068          -36.621        -138.886         -36.6216        -138.891       -0.0284702         140.713
0.642                   -4.70772         149.144         -36.4957        -140.541         -36.4962        -140.545       -0.0288598         140.624
0.643                   -4.80712         148.214         -36.3704        -142.205         -36.3709        -142.208       -0.0292599         140.536
0.644                   -4.90956         147.277         -36.2453        -143.877         -36.2457        -143.879       -0.0296705         140.446
0.645                   -5.01518         146.334         -36.1204        -145.557         -36.1207        -145.559       -0.0300917         140.357
0.646                   -5.12411         145.386         -35.9957        -147.246          -35.996        -147.247       -0.0305237         140.267
0.647                   -5.23651         144.432         -35.8713        -148.943         -35.8715        -148.943       -0.0309663         140.177
0.648                   -5.35251         143.473         -35.7472        -150.648         -35.7474        -150.648       -0.0314196         140.087
0.649                   -5.47227          142.51         -35.6236         -152.36         -35.6237         -152.36       -0.0318837         139.996
0.65                    -5.59596         141.543         -35.5004        -154.081         -35.5005        -154.081       -0.0323585         139.904
0.651                   -5.72373         140.572         -35.3776        -155.809         -35.3777        -155.809        -0.032844         139.813
0.652                   -5.85576         139.599         -35.2555        -157.545         -35.2555        -157.544         -0.03334         139.721
0.653                   -5.99222         138.623         -35.1339        -159.287         -35.1338        -159.287       -0.0338466         139.629
0.654                   -6.13329         137.646         -35.0129        -161.037         -35.0128        -161.036       -0.0343637         139.536
0.655                   -6.27916         136.669         -34.8926        -162.794         -34.8925        -162.792       -0.0348912         139.443
0.656                   -6.43001         135.693         -34.7729        -164.556         -34.7729        -164.555       -0.0354289          139.35
0.657                   -6.58603         134.718         -34.6541        -166.325          -34.654        -166.324       -0.0359768         139.256
0.658                   -6.74743         133.746          -34.536          -168.1         -34.5359        -168.099       -0.0365348         139.162
0.659                   -6.91439         132.778         -34.4187        -169.881         -34.4186         -169.88       -0.0371027         139.067
0.66                    -7.08714         131.817         -34.3022        -171.667         -34.3021        -171.666       -0.0376805         138.973
0.661                   -7.26586         130.862         -34.1866        -173.458         -34.1865        -173.457        -0.038268         138.877
0.662                   -7.45076         129.916         -34.0719        -175.253         -34.0718        -175.252       -0.0388651         138.782
0.663                   -7.64205         128.981         -33.9581        -177.053          -33.958        -177.052       -0.0394718         138.685
0.664                   -7.83993         128.059         -33.8453        -178.856         -33.8451        -178.856       -0.0400878         138.589
0.665                    -8.0446         127.152         -33.7333         179.336         -33.7332         179.337       -0.0407132         138.492
0.666                   -8.25627         126.263         -33.6224         177.526         -33.6223         177.526       -0.0413478         138.395
0.667                   -8.47511         125.394         -33.5124         175.713         -33.5123         175.713       -0.0419916         138.297
0.668                   -8.70133         124.549         -33.4033         173.897         -33.4033         173.897       -0.0426445         138.198
0.669                   -8.93508         123.729         -33.2953         172.079         -33.2952         172.079       -0.0433065           138.1
0.67                    -9.17654         122.939         -33.1882         170.259         -33.1882         170.259       -0.0439776         138.001
0.671                   -9.42585         122.183         -33.0821         168.438         -33.0821         168.438       -0.0446577         137.901
0.672                   -9.68313         121.464          -32.977         166.616          -32.977         166.616       -0.0453469         137.801
0.673                   -9.94849         120.786         -32.8728         164.793         -32.8728         164.793       -0.0460452           137.7
0.674                    -10.222         120.155         -32.7696         162.969         -32.7696         162.969       -0.0467527         137.599
0.675                   -10.5037         119.574         -32.6674         161.146         -32.6674         161.146       -0.0474694         137.497
0.676                   -10.7935          119.05          -32.566         159.323         -32.5661         159.323       -0.0481954         137.395
0.677                   -11.0915         118.589         -32.4656         157.501         -32.4657         157.501       -0.0489309         137.292
0.678                   -11.3974         118.196         -32.3661          155.68         -32.3661         155.679       -0.0496759         137.189
0.679                   -11.7111         117.878         -32.2674          153.86         -32.2675         153.859       -0.0504307         137.085
0.68                    -12.0323         117.643         -32.1696         152.042         -32.1697         152.041       -0.0511954         136.981
0.681                   -12.3606         117.497         -32.0726         150.225         -32.0727         150.225       -0.0519703         136.876
0.682                   -12.6954         117.449         -31.9763         148.411         -31.9764          148.41       -0.0527556          136.77
0.683                   -13.0361         117.507         -31.8809         146.599          -31.881         146.599       -0.0535515         136.664
0.684                   -13.3817         117.679         -31.7861          144.79         -31.7862          144.79       -0.0543584         136.557
0.685                   -13.7312         117.975          -31.692         142.984         -31.6922         142.984       -0.0551765          136.45
0.686                   -14.0834         118.404         -31.5986         141.181         -31.5988         141.181       -0.0560062         136.342
0.687                   -14.4365         118.973         -31.5058         139.382          -31.506         139.381        -0.056848         136.233
0.688                   -14.7888         119.691         -31.4136         137.586         -31.4138         137.585       -0.0577021         136.124
0.689                   -15.1381         120.565          -31.322         135.793         -31.3221         135.793        -0.058569         136.014
0.69                    -15.4818         121.602         -31.2308         134.005         -31.2309         134.005       -0.0594492         135.903
0.691                   -15.8171         122.804         -31.1401         132.221         -31.1402         132.221       -0.0603432         135.792
0.692                   -16.1408         124.174         -31.0498         130.441         -31.0499         130.441       -0.0612515          135.68
0.693                   -16.4495          125.71         -30.9599         128.665           -30.96         128.665       -0.0621745         135.567
0.694                   -16.7397         127.405         -30.8704         126.894         -30.8704         126.894        -0.063113         135.453
0.695                   -17.0078         129.249         -30.7811         125.127         -30.7811         125.127       -0.0640675         135.339
0.696                   -17.2502         131.228         -30.6921         123.365         -30.6921         123.365       -0.0650387         135.223
0.697                   -17.4637         133.321         -30.6033         121.608         -30.6033         121.608       -0.0660273         135.107