! TOUCHSTONE file generated by CST MICROWAVE STUDIO
! Date and time: Fri Oct  2 19:09:37 2020
! Project name: Scenario_1_Free_Space_out_of_line.cst
! Parameters = {Lambda=346.42; Step_1=17.321; dy1=174.23; dx1=866; L_HA=400; MT=2.54; Rad_Dielectric=30; Rad_Lower=7.3; Rad_Upper=30; a_HA=580; a_WG=246; b_HA=500; b_WG=121; c_HA=0; c_WG=187; d_feed=85; h_feed=15; h_lower=18; h_upper=40}
! Header version: 2018
! Port assignment regex: !\s*Touchstone port\s*([0-9]+)\s*=\s*(CST MWS port|CST DS port)\s*([0-9]+|Zmin|Zmax)\s*\(\"(.*)\"\)(\s*mode\s*([0-9]+))?.*
! Touchstone port assignment:
! Touchstone port 1 = CST MWS port 1 ("")
! Touchstone port 2 = CST MWS port 2 ("")
# GHz S DB R 50
0.5                    -0.148276        -122.546         -63.9258         139.018         -63.9258         139.018      -0.00663076         151.135
0.501                  -0.156342        -122.928           -63.94         136.977         -63.9409         136.967      -0.00669257          151.07
0.502                  -0.164397        -123.314         -63.9498         134.895         -63.9515         134.875      -0.00675521         151.004
0.503                  -0.172452        -123.705          -63.955         132.772         -63.9575         132.743      -0.00681869         150.939
0.504                  -0.180513        -124.099         -63.9551          130.61         -63.9583          130.57      -0.00688301         150.873
0.505                   -0.18859        -124.498         -63.9498         128.408         -63.9536         128.358      -0.00694818         150.808
0.506                  -0.196691          -124.9         -63.9388         126.168         -63.9431         126.108      -0.00701422         150.742
0.507                  -0.204824        -125.307         -63.9217          123.89         -63.9264          123.82      -0.00708113         150.676
0.508                  -0.212999        -125.717         -63.8981         121.577         -63.9032         121.496      -0.00714891          150.61
0.509                  -0.221225        -126.132         -63.8678         119.229         -63.8732         119.137      -0.00721759         150.544
0.51                   -0.229509         -126.55         -63.8303         116.848         -63.8359         116.746      -0.00728716         150.478
0.511                  -0.237862        -126.973         -63.7854         114.436         -63.7911         114.324      -0.00735764         150.412
0.512                  -0.246292          -127.4         -63.7329         111.995         -63.7386         111.874      -0.00742904         150.346
0.513                  -0.254808         -127.83         -63.6724         109.528          -63.678         109.397      -0.00750135          150.28
0.514                   -0.26342        -128.265         -63.6037         107.037         -63.6091         106.897      -0.00757461         150.213
0.515                  -0.272138        -128.704         -63.5267         104.525         -63.5318         104.376      -0.00764881         150.147
0.516                   -0.28097        -129.147         -63.4411         101.994         -63.4459         101.837      -0.00772396          150.08
0.517                  -0.289926        -129.593         -63.3469         99.4475         -63.3513         99.2823      -0.00780007         150.014
0.518                  -0.299015        -130.044          -63.244         96.8883         -63.2479         96.7157      -0.00787716         149.947
0.519                  -0.308249        -130.498         -63.1324         94.3193         -63.1358         94.1399      -0.00795523          149.88
0.52                   -0.317635        -130.957         -63.0121         91.7435         -63.0148         91.5579      -0.00803429         149.813
0.521                  -0.327185         -131.42         -62.8831         89.1638         -62.8852         88.9726      -0.00811436         149.746
0.522                  -0.336907        -131.886         -62.7456          86.583          -62.747          86.387      -0.00819545         149.679
0.523                  -0.346813        -132.357         -62.5996         84.0039         -62.6003         83.8037      -0.00827756         149.612
0.524                  -0.356912        -132.831         -62.4454          81.429         -62.4454         81.2254       -0.0083607         149.545
0.525                  -0.367214        -133.309         -62.2832         78.8609         -62.2824         78.6544      -0.00844489         149.478
0.526                   -0.37773        -133.792         -62.1132         76.3017         -62.1117         76.0931      -0.00853014          149.41
0.527                   -0.38847        -134.278         -61.9357         73.7536         -61.9335         73.5436      -0.00861647         149.343
0.528                  -0.399445        -134.768          -61.751         71.2184          -61.748         71.0076      -0.00870387         149.275
0.529                  -0.410664        -135.262         -61.5594         68.6976         -61.5557         68.4867      -0.00879236         149.207
0.53                   -0.422139         -135.76         -61.3612         66.1928         -61.3568         65.9823      -0.00888196          149.14
0.531                   -0.43388        -136.262         -61.1567         63.7051         -61.1517         63.4956      -0.00897268         149.072
0.532                  -0.445898        -136.767         -60.9464         61.2354         -60.9408         61.0275      -0.00906453         149.004
0.533                  -0.458203        -137.277         -60.7305         58.7844         -60.7244         58.5786      -0.00915752         148.936
0.534                  -0.470807         -137.79         -60.5094         56.3527         -60.5028         56.1495      -0.00925166         148.868
0.535                   -0.48372        -138.307         -60.2835         53.9406         -60.2764         53.7404      -0.00934697         148.799
0.536                  -0.496952        -138.828          -60.053         51.5481         -60.0455         51.3514      -0.00944346         148.731
0.537                  -0.510516        -139.353         -59.8184         49.1753         -59.8105         48.9823      -0.00954114         148.662
0.538                  -0.524422        -139.881         -59.5799         46.8219         -59.5717          46.633      -0.00964003         148.594
0.539                   -0.53868        -140.413         -59.3378         44.4875         -59.3294         44.3031      -0.00974013         148.525
0.54                   -0.553303        -140.949         -59.0925         42.1716         -59.0838         41.9919      -0.00984148         148.456
0.541                  -0.568301        -141.489         -58.8443         39.8736         -58.8354         39.6988      -0.00994407         148.387
0.542                  -0.583685        -142.032         -58.5933         37.5928         -58.5843         37.4232       -0.0100479         148.318
0.543                  -0.599466        -142.579         -58.3399         35.3283         -58.3309          35.164        -0.010153         148.249
0.544                  -0.615655         -143.13         -58.0843         33.0792         -58.0753         32.9205       -0.0102595          148.18
0.545                  -0.632265        -143.684         -57.8268         30.8445         -57.8178         30.6915       -0.0103672         148.111
0.546                  -0.649305        -144.242         -57.5675         28.6233         -57.5586          28.476       -0.0104762         148.041
0.547                  -0.666786        -144.803         -57.3067         26.4143          -57.298          26.273       -0.0105866         147.972
0.548                  -0.684721        -145.368         -57.0446         24.2166          -57.036         24.0813       -0.0106983         147.902
0.549                   -0.70312        -145.936         -56.7814         22.0288          -56.773         21.8997       -0.0108114         147.832
0.55                   -0.721994        -146.508         -56.5172         19.8499          -56.509          19.727       -0.0109259         147.762
0.551                  -0.741354        -147.084         -56.2521         17.6787         -56.2442          17.562       -0.0110418         147.692
0.552                  -0.761211        -147.662         -55.9865         15.5139         -55.9788         15.4034       -0.0111591         147.622
0.553                  -0.781577        -148.244         -55.7203         13.3543          -55.713         13.2502       -0.0112779         147.552
0.554                  -0.802462         -148.83         -55.4538         11.1987         -55.4468          11.101        -0.011398         147.482
0.555                  -0.823877        -149.418         -55.1871         9.04587         -55.1805          8.9546       -0.0115197         147.411
0.556                  -0.845833         -150.01         -54.9202         6.89461          -54.914         6.80981       -0.0116428         147.341
0.557                  -0.868341        -150.605         -54.6534         4.74372         -54.6477         4.66541       -0.0117675          147.27
0.558                  -0.891411        -151.204         -54.3868           2.592         -54.3814         2.52021       -0.0118937         147.199
0.559                  -0.915054        -151.805         -54.1205        0.438294         -54.1155        0.373041       -0.0120214         147.128
0.56                   -0.939281        -152.409         -53.8545        -1.71856           -53.85        -1.77726       -0.0121506         147.057
0.561                  -0.964102        -153.017          -53.589         -3.8797          -53.585        -3.93182       -0.0122815         146.986
0.562                  -0.989527        -153.627         -53.3242        -6.04622         -53.3205        -6.09175       -0.0124139         146.914
0.563                   -1.01557        -154.241           -53.06        -8.21921         -53.0569        -8.25814        -0.012548         146.843
0.564                   -1.04223        -154.857         -52.7968        -10.3997          -52.794         -10.432       -0.0126837         146.771
0.565                   -1.06953        -155.476         -52.5344        -12.5888         -52.5321        -12.6145       -0.0128211           146.7
0.566                   -1.09747        -156.098         -52.2731        -14.7874         -52.2713        -14.8064       -0.0129601         146.628
0.567                   -1.12607        -156.723          -52.013        -16.9965         -52.0116        -17.0089       -0.0131009         146.556
0.568                   -1.15533        -157.351         -51.7543         -19.217         -51.7533        -19.2227       -0.0132434         146.484
0.569                   -1.18527        -157.981         -51.4969        -21.4497         -51.4963        -21.4489       -0.0133876         146.411
0.57                    -1.21589        -158.613          -51.241        -23.6956         -51.2409        -23.6881       -0.0135336         146.339
0.571                    -1.2472        -159.248         -50.9869        -25.9553         -50.9871        -25.9412       -0.0136814         146.266
0.572                   -1.27921        -159.886         -50.7345        -28.2296          -50.735        -28.2089        -0.013831         146.194
0.573                   -1.31193        -160.526          -50.484        -30.5192         -50.4849         -30.492       -0.0139825         146.121
0.574                   -1.34537        -161.168         -50.2356        -32.8247         -50.2368        -32.7909       -0.0141358         146.048
0.575                   -1.37953        -161.813         -49.9894        -35.1467         -49.9909        -35.1063        -0.014291         145.975
0.576                   -1.41443         -162.46         -49.7456        -37.4855         -49.7473        -37.4387       -0.0144482         145.901
0.577                   -1.45008        -163.109         -49.5042        -39.8417         -49.5062        -39.7885       -0.0146072         145.828
0.578                   -1.48647         -163.76         -49.2654        -42.2156         -49.2677         -42.156       -0.0147683         145.754
0.579                   -1.52362        -164.413         -49.0295        -44.6073         -49.0319        -44.5415       -0.0149313         145.681
0.58                    -1.56154        -165.068         -48.7964        -47.0172          -48.799        -46.9453       -0.0150964         145.607
0.581                   -1.60024        -165.725         -48.5665        -49.4454         -48.5691        -49.3673       -0.0152635         145.533
0.582                   -1.63971        -166.384         -48.3397        -51.8917         -48.3425        -51.8077       -0.0154327         145.458
0.583                   -1.67997        -167.044         -48.1164        -54.3562         -48.1192        -54.2664        -0.015604         145.384
0.584                   -1.72103        -167.707         -47.8966        -56.8387         -47.8994        -56.7432       -0.0157774         145.309
0.585                   -1.76289        -168.371         -47.6804        -59.3388         -47.6832        -59.2378        -0.015953         145.235
0.586                   -1.80555        -169.036         -47.4681        -61.8564         -47.4708          -61.75       -0.0161308          145.16
0.587                   -1.84903        -169.703         -47.2598        -64.3908         -47.2624        -64.2794       -0.0163108         145.085
0.588                   -1.89333        -170.372         -47.0555        -66.9416         -47.0579        -66.8252       -0.0164931          145.01
0.589                   -1.93845        -171.042         -46.8555        -69.5081         -46.8577        -69.3871       -0.0166777         144.934
0.59                     -1.9844        -171.713         -46.6597        -72.0896         -46.6618        -71.9641       -0.0168647         144.859
0.591                   -2.03119        -172.385         -46.4685        -74.6853         -46.4703        -74.5557       -0.0170539         144.783
0.592                   -2.07882        -173.059         -46.2818        -77.2943         -46.2833        -77.1608       -0.0172456         144.707
0.593                   -2.12729        -173.733         -46.0997        -79.9156         -46.1009        -79.7785       -0.0174397         144.631
0.594                   -2.17662        -174.409         -45.9223        -82.5482         -45.9232        -82.4078       -0.0176363         144.555
0.595                    -2.2268        -175.086         -45.7497         -85.191         -45.7503        -85.0476       -0.0178354         144.478
0.596                   -2.27784        -175.763         -45.5819        -87.8428         -45.5821        -87.6968        -0.018037         144.402
0.597                   -2.32974        -176.442         -45.4189        -90.5024         -45.4188        -90.3541       -0.0182413         144.325
0.598                   -2.38251        -177.121         -45.2608        -93.1687         -45.2602        -93.0184       -0.0184481         144.248
0.599                   -2.43615          -177.8         -45.1076        -95.8403         -45.1066        -95.6884       -0.0186576         144.171
0.6                     -2.49066        -178.481         -44.9592         -98.516         -44.9578        -98.3629       -0.0188698         144.094
0.601                   -2.54606        -179.162         -44.8156        -101.195         -44.8137         -101.04       -0.0190848         144.016
0.602                   -2.60234        -179.844         -44.6768        -103.875         -44.6745         -103.72       -0.0193025         143.938
0.603                    -2.6595         179.474         -44.5426        -106.555         -44.5399          -106.4       -0.0195231          143.86
0.604                   -2.71755         178.792         -44.4131        -109.234         -44.4099        -109.079       -0.0197465         143.782
0.605                   -2.77649         178.109         -44.2881        -111.912         -44.2845        -111.757       -0.0199729         143.704
0.606                   -2.83632         177.427         -44.1675        -114.585         -44.1635        -114.432       -0.0202023         143.625
0.607                   -2.89706         176.743         -44.0511        -117.255         -44.0467        -117.102       -0.0204346         143.546
0.608                   -2.95869          176.06          -43.939        -119.919         -43.9342        -119.768       -0.0206701         143.467
0.609                   -3.02122         175.377         -43.8308        -122.577         -43.8256        -122.427       -0.0209087         143.388
0.61                    -3.08466         174.693         -43.7265        -125.227         -43.7209        -125.079       -0.0211504         143.309
0.611                   -3.14901          174.01         -43.6258        -127.869           -43.62        -127.723       -0.0213954         143.229
0.612                   -3.21427         173.327         -43.5287        -130.503         -43.5225        -130.359       -0.0216437         143.149
0.613                   -3.28044         172.644         -43.4349        -133.126         -43.4285        -132.985       -0.0218953         143.069
0.614                   -3.34753         171.961         -43.3443         -135.74         -43.3376        -135.602       -0.0221504         142.989
0.615                   -3.41554         171.278         -43.2566        -138.343         -43.2497        -138.207       -0.0224089         142.908
0.616                   -3.48447         170.596         -43.1718        -140.934         -43.1646        -140.802       -0.0226709         142.827
0.617                   -3.55432         169.914         -43.0895        -143.514         -43.0821        -143.385       -0.0229365         142.746
0.618                   -3.62509         169.232         -43.0096        -146.083         -43.0021        -145.957       -0.0232058         142.665
0.619                    -3.6968         168.551          -42.932        -148.639         -42.9243        -148.517       -0.0234789         142.584
0.62                    -3.76944          167.87         -42.8564        -151.183         -42.8486        -151.064       -0.0237557         142.502
0.621                   -3.84302          167.19         -42.7826        -153.715         -42.7748          -153.6       -0.0240364          142.42
0.622                   -3.91753          166.51         -42.7106        -156.234         -42.7026        -156.123        -0.024321         142.338
0.623                   -3.99299         165.831           -42.64        -158.742          -42.632        -158.634       -0.0246097         142.255
0.624                   -4.06939         165.153         -42.5708        -161.237         -42.5628        -161.133       -0.0249025         142.172
0.625                   -4.14674         164.475         -42.5027        -163.721         -42.4947         -163.62       -0.0251995         142.089
0.626                   -4.22505         163.798         -42.4356        -166.192         -42.4277        -166.095       -0.0255008         142.006
0.627                   -4.30431         163.122         -42.3694        -168.652         -42.3615        -168.559       -0.0258064         141.923
0.628                   -4.38454         162.447         -42.3039        -171.101          -42.296        -171.012       -0.0261165         141.839
0.629                   -4.46574         161.772         -42.2389        -173.539         -42.2312        -173.453       -0.0264311         141.755
0.63                    -4.54791         161.099         -42.1744        -175.966         -42.1667        -175.884       -0.0267503          141.67
0.631                   -4.63106         160.426         -42.1101        -178.383         -42.1026        -178.305       -0.0270743         141.586
0.632                   -4.71519         159.755          -42.046         179.209         -42.0386         179.284       -0.0274032         141.501
0.633                   -4.80032         159.084          -41.982         176.811         -41.9748         176.883        -0.027737         141.415
0.634                   -4.88644         158.414         -41.9179         174.423         -41.9108         174.491       -0.0280758          141.33
0.635                   -4.97357         157.746         -41.8537         172.042         -41.8467         172.107       -0.0284199         141.244
0.636                   -5.06171         157.078         -41.7891          169.67         -41.7824         169.732       -0.0287692         141.158
0.637                   -5.15088         156.412         -41.7243         167.306         -41.7177         167.364       -0.0291239         141.071
0.638                   -5.24107         155.746          -41.659         164.948         -41.6526         165.004       -0.0294842         140.985
0.639                   -5.33231         155.082         -41.5931         162.598          -41.587          162.65       -0.0298502         140.897
0.64                    -5.42459         154.419         -41.5267         160.253         -41.5207         160.303       -0.0302219          140.81
0.641                   -5.51794         153.758         -41.4596         157.915         -41.4539         157.961       -0.0305996         140.722
0.642                   -5.61236         153.097         -41.3918         155.581         -41.3863         155.625       -0.0309835         140.634
0.643                   -5.70787         152.438         -41.3232         153.253         -41.3179         153.294       -0.0313735         140.546
0.644                   -5.80447         151.781         -41.2537         150.928         -41.2486         150.967         -0.03177         140.457
0.645                   -5.90219         151.125         -41.1834         148.608         -41.1785         148.645        -0.032173         140.368
0.646                   -6.00103          150.47         -41.1121         146.291         -41.1075         146.326       -0.0325828         140.279
0.647                   -6.10102         149.816         -41.0399         143.977         -41.0354         144.009       -0.0329996         140.189
0.648                   -6.20216         149.164         -40.9666         141.666         -40.9624         141.696       -0.0334234         140.099
0.649                   -6.30448         148.514         -40.8923         139.357         -40.8883         139.385       -0.0338545         140.008
0.65                      -6.408         147.865          -40.817         137.049         -40.8132         137.075       -0.0342931         139.917
0.651                   -6.51273         147.218         -40.7405         134.743          -40.737         134.767       -0.0347394         139.826
0.652                   -6.61869         146.572          -40.663         132.438         -40.6596          132.46       -0.0351937         139.734
0.653                   -6.72592         145.929         -40.5843         130.133         -40.5812         130.153       -0.0356561         139.642
0.654                   -6.83442         145.286         -40.5045         127.828         -40.5016         127.847       -0.0361268          139.55
0.655                   -6.94424         144.646         -40.4236         125.523         -40.4208          125.54       -0.0366062         139.457
0.656                   -7.05538         144.008         -40.3415         123.217         -40.3389         123.233       -0.0370945         139.364
0.657                   -7.16789         143.372         -40.2583          120.91         -40.2559         120.924       -0.0375919          139.27
0.658                   -7.28178         142.737         -40.1739         118.602         -40.1717         118.615       -0.0380988         139.176
0.659                   -7.39709         142.105         -40.0884         116.292         -40.0864         116.304       -0.0386153         139.082
0.66                    -7.51386         141.475         -40.0018         113.981              -40         113.991       -0.0391418         138.987
0.661                   -7.63211         140.848         -39.9141         111.667         -39.9124         111.676       -0.0396787         138.891
0.662                   -7.75188         140.223         -39.8252          109.35         -39.8237         109.358       -0.0402262         138.796
0.663                   -7.87322           139.6         -39.7353          107.03         -39.7339         107.038       -0.0407846         138.699
0.664                   -7.99615          138.98         -39.6443         104.708         -39.6431         104.714       -0.0413544         138.603
0.665                   -8.12073         138.363         -39.5523         102.382         -39.5512         102.388       -0.0419359         138.505
0.666                   -8.24699         137.749         -39.4593         100.052         -39.4583         100.057       -0.0425294         138.408
0.667                   -8.37499         137.138         -39.3652         97.7186         -39.3644          97.723       -0.0431353          138.31
0.668                   -8.50477          136.53         -39.2702         95.3811         -39.2695         95.3849       -0.0437541         138.211
0.669                   -8.63639         135.926         -39.1743         93.0394         -39.1737         93.0425       -0.0443861         138.112
0.67                     -8.7699         135.326         -39.0775         90.6932         -39.0769         90.6958       -0.0450319         138.012
0.671                   -8.90535         134.729         -38.9798         88.3424         -38.9793         88.3446       -0.0456917         137.912
0.672                    -9.0428         134.137         -38.8813         85.9868         -38.8809         85.9886       -0.0463662         137.812
0.673                   -9.18233         133.549          -38.782         83.6263         -38.7817         83.6278       -0.0470558         137.711
0.674                   -9.32399         132.966         -38.6819         81.2609         -38.6817         81.2621       -0.0477609         137.609
0.675                   -9.46786         132.388         -38.5812         78.8903          -38.581         78.8912       -0.0484821         137.507
0.676                     -9.614         131.816         -38.4798         76.5145         -38.4797         76.5152       -0.0492198         137.404
0.677                   -9.76249          131.25         -38.3777         74.1334         -38.3777         74.1339       -0.0499747         137.301
0.678                   -9.91342          130.69         -38.2751         71.7469         -38.2752         71.7472       -0.0507472         137.197
0.679                   -10.0669         130.137          -38.172          69.355         -38.1721         69.3552        -0.051538         137.092
0.68                    -10.2229         129.591         -38.0684         66.9577         -38.0685         66.9578       -0.0523475         136.987
0.681                   -10.3816         129.054         -37.9644          64.555         -37.9645          64.555       -0.0531763         136.882
0.682                   -10.5432         128.525         -37.8599         62.1468         -37.8601         62.1467       -0.0540251         136.776
0.683                   -10.7076         128.006         -37.7552         59.7331         -37.7554         59.7331       -0.0548944         136.669
0.684                   -10.8749         127.497         -37.6502         57.3141         -37.6504         57.3141       -0.0557847         136.561
0.685                   -11.0454         126.999         -37.5449         54.8898         -37.5451         54.8897       -0.0566968         136.453
0.686                   -11.2191         126.513         -37.4394         52.4601         -37.4397         52.4601       -0.0576311         136.345
0.687                   -11.3961          126.04         -37.3338         50.0253         -37.3341         50.0253       -0.0585883         136.235
0.688                   -11.5765         125.582         -37.2282         47.5854         -37.2284         47.5855       -0.0595689         136.125
0.689                   -11.7604         125.139         -37.1224         45.1406         -37.1227         45.1407       -0.0605736         136.015
0.69                     -11.948         124.713         -37.0167         42.6909         -37.0169         42.6911       -0.0616029         135.904
0.691                   -12.1394         124.306         -36.9111         40.2365         -36.9113         40.2367       -0.0626573         135.792
0.692                   -12.3346         123.919         -36.8055         37.7776         -36.8057         37.7779       -0.0637375         135.679
0.693                   -12.5339         123.554         -36.7001         35.3143         -36.7002         35.3147       -0.0648439         135.566
0.694                   -12.7372         123.213         -36.5948         32.8468          -36.595         32.8473        -0.065977         135.452
0.695                   -12.9448         122.899         -36.4898         30.3754         -36.4899          30.376       -0.0671374         135.337
0.696                   -13.1567         122.614          -36.385         27.9003         -36.3851         27.9009       -0.0683255         135.221
0.697                    -13.373         122.362         -36.2805         25.4216         -36.2806         25.4223       -0.0695418         135.105