! TOUCHSTONE file generated by CST MICROWAVE STUDIO
! Date and time: Fri Oct  2 18:56:02 2020
! Project name: Scenario_1_Free_Space_out_of_line.cst
! Parameters = {Lambda=346.42; Step_1=17.321; dy1=174.23; dx1=1039; L_HA=400; MT=2.54; Rad_Dielectric=30; Rad_Lower=7.3; Rad_Upper=30; a_HA=580; a_WG=246; b_HA=500; b_WG=121; c_HA=0; c_WG=187; d_feed=85; h_feed=15; h_lower=18; h_upper=40}
! Header version: 2018
! Port assignment regex: !\s*Touchstone port\s*([0-9]+)\s*=\s*(CST MWS port|CST DS port)\s*([0-9]+|Zmin|Zmax)\s*\(\"(.*)\"\)(\s*mode\s*([0-9]+))?.*
! Touchstone port assignment:
! Touchstone port 1 = CST MWS port 1 ("")
! Touchstone port 2 = CST MWS port 2 ("")
# GHz S DB R 50
0.5                    -0.148077        -122.574         -64.5487         42.7313         -64.5487         42.7313      -0.00671608         151.118
0.501                  -0.154233         -123.01         -64.5158         39.6762          -64.403         40.5746      -0.00680524         151.053
0.502                  -0.160527        -123.449          -64.467         36.5915         -64.2542         38.4037      -0.00689348         150.988
0.503                  -0.166962        -123.889         -64.4022          33.487         -64.1024         36.2188      -0.00698065         150.922
0.504                  -0.173541        -124.331         -64.3215         30.3728         -63.9475         34.0199      -0.00706662         150.857
0.505                  -0.180267        -124.775          -64.225         27.2585         -63.7896         31.8072      -0.00715127         150.791
0.506                  -0.187145        -125.222         -64.1134         24.1533         -63.6287         29.5807      -0.00723451         150.726
0.507                  -0.194177         -125.67         -63.9873         21.0659         -63.4649         27.3404      -0.00731622          150.66
0.508                  -0.201367        -126.121         -63.8474         18.0036         -63.2983         25.0863      -0.00739634         150.594
0.509                   -0.20872        -126.574         -63.6948         14.9732         -63.1288         22.8186      -0.00747482         150.529
0.51                   -0.216238        -127.029         -63.5305         11.9801         -62.9566         20.5371      -0.00755162         150.463
0.511                  -0.223927        -127.486         -63.3556         9.02873         -62.7817         18.2418      -0.00762673         150.397
0.512                   -0.23179        -127.945         -63.1712         6.12222         -62.6042         15.9328      -0.00770016         150.331
0.513                  -0.239831        -128.406         -62.9784          3.2628         -62.4242         13.6099      -0.00777196         150.264
0.514                  -0.248055         -128.87         -62.7784        0.451636         -62.2416         11.2731      -0.00784217         150.198
0.515                  -0.256465        -129.336         -62.5721        -2.31095         -62.0567         8.92227       -0.0079109         150.132
0.516                  -0.265068        -129.804         -62.3606        -5.02542         -61.8696         6.55733      -0.00797824         150.066
0.517                  -0.273866        -130.274         -62.1449         -7.6929         -61.6802         4.17814      -0.00804433         149.999
0.518                  -0.282865        -130.747         -61.9258        -10.3151         -61.4888          1.7846      -0.00810932         149.932
0.519                   -0.29207        -131.222          -61.704         -12.894         -61.2954       -0.623448      -0.00817338         149.866
0.52                   -0.301486        -131.699         -61.4804        -15.4321         -61.1001        -3.04614      -0.00823668         149.799
0.521                  -0.311118        -132.179         -61.2554        -17.9322         -60.9032        -5.48364      -0.00829944         149.732
0.522                   -0.32097        -132.661         -61.0297         -20.397         -60.7046         -7.9361      -0.00836184         149.665
0.523                  -0.331048        -133.145         -60.8038        -22.8296         -60.5046        -10.4037       -0.0084241         149.598
0.524                  -0.341358        -133.632          -60.578        -25.2328         -60.3032        -12.8865      -0.00848644         149.531
0.525                  -0.351906        -134.122         -60.3528        -27.6098         -60.1007        -15.3847      -0.00854908         149.464
0.526                  -0.362696        -134.613         -60.1284        -29.9636         -59.8971        -17.8985      -0.00861221         149.396
0.527                  -0.373735        -135.107         -59.9051        -32.2969         -59.6927        -20.4279      -0.00867606         149.329
0.528                  -0.385028        -135.604         -59.6831        -34.6127         -59.4875        -22.9731      -0.00874082         149.261
0.529                  -0.396582        -136.103         -59.4625        -36.9136         -59.2818        -25.5341      -0.00880668         149.193
0.53                   -0.408403        -136.604         -59.2436        -39.2023         -59.0758        -28.1109      -0.00887383         149.126
0.531                  -0.420497        -137.108         -59.0264        -41.4812         -58.8695        -30.7036      -0.00894244         149.058
0.532                  -0.432871        -137.615          -58.811        -43.7526         -58.6633        -33.3121      -0.00901265          148.99
0.533                   -0.44553        -138.124         -58.5975        -46.0187         -58.4572        -35.9363      -0.00908463         148.921
0.534                  -0.458482        -138.635         -58.3859        -48.2816         -58.2515         -38.576      -0.00915848         148.853
0.535                  -0.471734        -139.149         -58.1762        -50.5432         -58.0463        -41.2312      -0.00923433         148.785
0.536                  -0.485292        -139.666         -57.9685        -52.8053         -57.8419        -43.9013      -0.00931229         148.716
0.537                  -0.499164        -140.185         -57.7628        -55.0695         -57.6385        -46.5863      -0.00939243         148.648
0.538                  -0.513356        -140.707          -57.559        -57.3375         -57.4362        -49.2855      -0.00947483         148.579
0.539                  -0.527876        -141.231         -57.3571        -59.6105         -57.2352        -51.9985      -0.00955955          148.51
0.54                   -0.542731        -141.758         -57.1571        -61.8899         -57.0357        -54.7247      -0.00964665         148.441
0.541                  -0.557929        -142.287          -56.959        -64.1768          -56.838        -57.4634      -0.00973615         148.372
0.542                  -0.573478        -142.819         -56.7628        -66.4724         -56.6421        -60.2138       -0.0098281         148.303
0.543                  -0.589384        -143.354         -56.5685        -68.7775         -56.4482        -62.9751      -0.00992251         148.234
0.544                  -0.605656        -143.891         -56.3759         -71.093         -56.2566        -65.7463       -0.0100194         148.165
0.545                  -0.622302        -144.431         -56.1851        -73.4197         -56.0673        -68.5263       -0.0101187         148.095
0.546                  -0.639329        -144.973          -55.996        -75.7583         -55.8805        -71.3141       -0.0102205         148.026
0.547                  -0.656746        -145.518         -55.8087        -78.1093         -55.6963        -74.1083       -0.0103248         147.956
0.548                  -0.674561        -146.066         -55.6231        -80.4732         -55.5148        -76.9077       -0.0104315         147.886
0.549                  -0.692781        -146.616         -55.4391        -82.8504          -55.336        -79.7109       -0.0105407         147.816
0.55                   -0.711416        -147.168         -55.2567        -85.2413         -55.1601        -82.5166       -0.0106522         147.746
0.551                  -0.730472        -147.724          -55.076        -87.6461         -54.9871        -85.3233       -0.0107662         147.676
0.552                   -0.74996        -148.281         -54.8968         -90.065         -54.8169        -88.1294       -0.0108824         147.606
0.553                  -0.769885        -148.842         -54.7192        -92.4982         -54.6496        -90.9337        -0.011001         147.536
0.554                  -0.790258        -149.404         -54.5431        -94.9456         -54.4851        -93.7345       -0.0111218         147.465
0.555                  -0.811086         -149.97         -54.3686        -97.4073         -54.3234        -96.5306       -0.0112449         147.395
0.556                  -0.832377        -150.537         -54.1956        -99.8832         -54.1643        -99.3205       -0.0113702         147.324
0.557                  -0.854139        -151.108         -54.0241        -102.373         -54.0078        -102.103       -0.0114977         147.253
0.558                  -0.876381         -151.68         -53.8541        -104.877         -53.8536        -104.877       -0.0116273         147.182
0.559                  -0.899109        -152.256         -53.6856        -107.395         -53.7017        -107.641        -0.011759         147.111
0.56                   -0.922333        -152.833         -53.5185        -109.926         -53.5519        -110.395       -0.0118927          147.04
0.561                   -0.94606        -153.413         -53.3529         -112.47         -53.4039        -113.137       -0.0120285         146.969
0.562                  -0.970296        -153.995         -53.1888        -115.027         -53.2575        -115.868       -0.0121663         146.897
0.563                   -0.99505         -154.58         -53.0261        -117.596         -53.1126        -118.586        -0.012306         146.826
0.564                   -1.02033        -155.167         -52.8648        -120.177         -52.9689        -121.292       -0.0124476         146.754
0.565                   -1.04614        -155.756          -52.705         -122.77         -52.8261        -123.986        -0.012591         146.682
0.566                   -1.07249        -156.347         -52.5466        -125.374          -52.684        -126.668       -0.0127364          146.61
0.567                   -1.09938        -156.941         -52.3896        -127.988         -52.5424        -129.338       -0.0128835         146.538
0.568                   -1.12682        -157.536          -52.234        -130.612         -52.4012        -131.996       -0.0130324         146.466
0.569                   -1.15481        -158.134         -52.0798        -133.246           -52.26        -134.645        -0.013183         146.394
0.57                    -1.18337        -158.734          -51.927        -135.888         -52.1188        -137.284       -0.0133354         146.321
0.571                   -1.21249        -159.335         -51.7756        -138.539         -51.9773        -139.915       -0.0134894         146.249
0.572                   -1.24218        -159.939         -51.6256        -141.197         -51.8356        -142.539       -0.0136451         146.176
0.573                   -1.27244        -160.545         -51.4769        -143.863         -51.6934        -145.158       -0.0138025         146.103
0.574                   -1.30327        -161.152         -51.3295        -146.535         -51.5507        -147.772       -0.0139615          146.03
0.575                   -1.33469        -161.762         -51.1834        -149.212         -51.4074        -150.382        -0.014122         145.957
0.576                   -1.36668        -162.373         -51.0387        -151.895         -51.2637        -152.991       -0.0142842         145.884
0.577                   -1.39925        -162.986         -50.8952        -154.583         -51.1194          -155.6       -0.0144478          145.81
0.578                   -1.43241        -163.601         -50.7529        -157.275         -50.9747        -158.209       -0.0146131         145.737
0.579                   -1.46615        -164.217         -50.6118         -159.97         -50.8296         -160.82       -0.0147798         145.663
0.58                    -1.50047        -164.835          -50.472        -162.668         -50.6842        -163.433       -0.0149481         145.589
0.581                   -1.53537        -165.455         -50.3333        -165.369         -50.5386         -166.05       -0.0151179         145.515
0.582                   -1.57084        -166.076         -50.1957        -168.071         -50.3929        -168.672       -0.0152892         145.441
0.583                   -1.60689        -166.699         -50.0592        -170.775         -50.2473        -171.298        -0.015462         145.367
0.584                   -1.64351        -167.323         -49.9237        -173.479          -50.102        -173.929       -0.0156363         145.292
0.585                    -1.6807        -167.949         -49.7892        -176.184         -49.9569        -176.565       -0.0158121         145.217
0.586                   -1.71845        -168.576         -49.6558        -178.889         -49.8124        -179.207       -0.0159895         145.143
0.587                   -1.75676        -169.205         -49.5232         178.406         -49.6684         178.146       -0.0161683         145.068
0.588                   -1.79563        -169.836         -49.3916         175.703         -49.5252         175.493       -0.0163488         144.992
0.589                   -1.83504        -170.467         -49.2607             173         -49.3828         172.836       -0.0165307         144.917
0.59                    -1.87498        -171.101         -49.1307         170.299         -49.2413         170.175       -0.0167143         144.842
0.591                   -1.91547        -171.736         -49.0014           167.6         -49.1008          167.51       -0.0168995         144.766
0.592                   -1.95648        -172.372         -48.8729         164.903         -48.9614         164.842       -0.0170864          144.69
0.593                     -1.998        -173.011          -48.745         162.209          -48.823          162.17       -0.0172749         144.614
0.594                   -2.04005        -173.651         -48.6177         159.517         -48.6859         159.497       -0.0174652         144.538
0.595                    -2.0826        -174.292          -48.491         156.828         -48.5498         156.822       -0.0176573         144.461
0.596                   -2.12565        -174.936         -48.3648         154.141          -48.415         154.147       -0.0178513         144.385
0.597                    -2.1692        -175.581         -48.2391         151.458         -48.2812         151.471       -0.0180472         144.308
0.598                   -2.21324        -176.229         -48.1139         148.778         -48.1486         148.795       -0.0182451         144.231
0.599                   -2.25778        -176.879          -47.989           146.1         -48.0171          146.12       -0.0184451         144.154
0.6                      -2.3028        -177.531         -47.8645         143.427         -47.8866         143.447       -0.0186472         144.077
0.601                   -2.34832        -178.186         -47.7403         140.756         -47.7572         140.775       -0.0188517         143.999
0.602                   -2.39432        -178.843         -47.6164         138.088         -47.6286         138.105       -0.0190585         143.921
0.603                   -2.44082        -179.503         -47.4927         135.424         -47.5009         135.437       -0.0192678         143.843
0.604                   -2.48783         179.833         -47.3693         132.763         -47.3741         132.772       -0.0194797         143.765
0.605                   -2.53534         179.167          -47.246         130.105         -47.2479          130.11       -0.0196944         143.687
0.606                   -2.58339         178.497         -47.1228          127.45         -47.1224          127.45        -0.019912         143.608
0.607                   -2.63197         177.824         -46.9998         124.797         -46.9975         124.794       -0.0201326         143.529
0.608                   -2.68111         177.147         -46.8768         122.147         -46.8732          122.14       -0.0203564          143.45
0.609                   -2.73084         176.465         -46.7539           119.5         -46.7493          119.49       -0.0205836         143.371
0.61                    -2.78117          175.78         -46.6311         116.855         -46.6257         116.842       -0.0208144         143.291
0.611                   -2.83215          175.09         -46.5082         114.212         -46.5025         114.197       -0.0210488         143.212
0.612                   -2.88379         174.395         -46.3853         111.571         -46.3796         111.554       -0.0212872         143.132
0.613                   -2.93616         173.695         -46.2625         108.931         -46.2569         108.914       -0.0215298         143.052
0.614                   -2.98928          172.99         -46.1396         106.294         -46.1343         106.277       -0.0217766         142.971
0.615                    -3.0432          172.28         -46.0166         103.657         -46.0118         103.641        -0.022028         142.891
0.616                   -3.09798         171.564         -45.8936         101.021         -45.8895         101.007       -0.0222841          142.81
0.617                   -3.15368         170.842         -45.7706         98.3866         -45.7671         98.3737       -0.0225451         142.729
0.618                   -3.21035         170.115         -45.6474         95.7524         -45.6448          95.742       -0.0228114         142.647
0.619                   -3.26806         169.381         -45.5243         93.1184         -45.5225         93.1111       -0.0230829         142.566
0.62                    -3.32687         168.642          -45.401         90.4845         -45.4001         90.4807       -0.0233601         142.484
0.621                   -3.38687         167.896         -45.2778         87.8503         -45.2776         87.8504        -0.023643         142.401
0.622                   -3.44813         167.144         -45.1544         85.2157         -45.1551         85.2199       -0.0239319         142.319
0.623                   -3.51073         166.385         -45.0311         82.5804         -45.0326         82.5889        -0.024227         142.236
0.624                   -3.57475         165.621         -44.9077         79.9441         -44.9099         79.9572       -0.0245284         142.154
0.625                   -3.64027          164.85         -44.7843         77.3067         -44.7872         77.3243       -0.0248363          142.07
0.626                   -3.70739         164.073          -44.661         74.6679         -44.6645         74.6899       -0.0251508         141.987
0.627                   -3.77619          163.29         -44.5376         72.0274         -44.5417         72.0539       -0.0254722         141.903
0.628                   -3.84676         162.502         -44.4144         69.3852         -44.4189         69.4159       -0.0258004         141.819
0.629                   -3.91919         161.707         -44.2912         66.7409         -44.2961         66.7757       -0.0261357         141.735
0.63                    -3.99358         160.908          -44.168         64.0944         -44.1733          64.133       -0.0264781          141.65
0.631                   -4.07002         160.103         -44.0451         61.4456         -44.0505         61.4875       -0.0268277         141.566
0.632                   -4.14859         159.294         -43.9223         58.7942         -43.9279         58.8392       -0.0271845         141.481
0.633                   -4.22939          158.48         -43.7996         56.1402         -43.8053         56.1878       -0.0275486         141.395
0.634                   -4.31251         157.663         -43.6772         53.4833         -43.6829         53.5332         -0.02792          141.31
0.635                   -4.39803         156.842         -43.5551         50.8236         -43.5607         50.8752       -0.0282986         141.224
0.636                   -4.48603         156.019         -43.4332         48.1609         -43.4387         48.2137       -0.0286845         141.138
0.637                    -4.5766         155.193         -43.3117         45.4951          -43.317         45.5486       -0.0290776         141.051
0.638                    -4.6698         154.365         -43.1905         42.8262         -43.1955         42.8799       -0.0294779         140.964
0.639                   -4.76573         153.537         -43.0697         40.1541         -43.0745         40.2076       -0.0298852         140.877
0.64                    -4.86443         152.709         -42.9494         37.4789         -42.9538         37.5316       -0.0302996          140.79
0.641                   -4.96598         151.881         -42.8295         34.8005         -42.8336          34.852        -0.030721         140.702
0.642                   -5.07044         151.054         -42.7101         32.1191         -42.7138         32.1689       -0.0311491         140.614
0.643                   -5.17785         150.229         -42.5912         29.4345         -42.5946         29.4822       -0.0315841         140.526
0.644                   -5.28825         149.408         -42.4729         26.7469         -42.4759         26.7921       -0.0320257         140.437
0.645                    -5.4017          148.59         -42.3552         24.0565         -42.3578         24.0987       -0.0324738         140.348
0.646                   -5.51822         147.778         -42.2382         21.3632         -42.2404         21.4022       -0.0329284         140.259
0.647                   -5.63783         146.971         -42.1218         18.6672         -42.1237         18.7028       -0.0333894         140.169
0.648                   -5.76054         146.171         -42.0061         15.9688         -42.0077         16.0006       -0.0338566         140.079
0.649                   -5.88637         145.379         -41.8911          13.268         -41.8924         13.2959       -0.0343301         139.989
0.65                    -6.01531         144.596         -41.7769          10.565         -41.7779         10.5888       -0.0348097         139.899
0.651                   -6.14735         143.822         -41.6635         7.86003         -41.6641         7.87977       -0.0352954         139.808
0.652                   -6.28246          143.06         -41.5508         5.15333         -41.5513         5.16891       -0.0357871         139.716
0.653                   -6.42061          142.31          -41.439         2.44511         -41.4392         2.45657       -0.0362849         139.625
0.654                   -6.56176         141.573          -41.328        -0.26438          -41.328        -0.25698       -0.0367888         139.532
0.655                   -6.70584          140.85         -41.2178        -2.97489         -41.2177        -2.97142       -0.0372987          139.44
0.656                    -6.8528         140.143         -41.1084        -5.68615         -41.1083        -5.68643       -0.0378147         139.347
0.657                   -7.00256         139.453         -40.9999        -8.39789         -40.9997        -8.40171       -0.0383368         139.254
0.658                   -7.15501          138.78         -40.8923        -11.1098         -40.8921        -11.1169       -0.0388651          139.16
0.659                   -7.31006         138.125         -40.7855        -13.8217         -40.7853        -13.8318       -0.0393999         139.066
0.66                    -7.46758         137.491         -40.6796        -16.5332         -40.6793        -16.5459        -0.039941         138.972
0.661                   -7.62744         136.877         -40.5745         -19.244         -40.5743         -19.259       -0.0404888         138.877
0.662                   -7.78951         136.284         -40.4702        -21.9539           -40.47        -21.9708       -0.0410434         138.782
0.663                   -7.95361         135.714         -40.3667        -24.6626         -40.3666        -24.6809        -0.041605         138.686
0.664                   -8.11958         135.168          -40.264        -27.3698          -40.264        -27.3892       -0.0421738          138.59
0.665                   -8.28724         134.645         -40.1621        -30.0753         -40.1622        -30.0952         -0.04275         138.493
0.666                   -8.45639         134.147         -40.0609        -32.7787         -40.0611        -32.7987       -0.0433341         138.396
0.667                   -8.62682         133.675         -39.9605        -35.4798         -39.9608        -35.4996       -0.0439262         138.298
0.668                   -8.79831         133.229         -39.8607        -38.1785          -39.861        -38.1975       -0.0445267           138.2
0.669                   -8.97063         132.808         -39.7616        -40.8744          -39.762        -40.8922        -0.045136         138.102
0.67                    -9.14356         132.414         -39.6631        -43.5674         -39.6635        -43.5836       -0.0457545         138.003
0.671                   -9.31685         132.047         -39.5651        -46.2573         -39.5656        -46.2715       -0.0463826         137.903
0.672                   -9.49025         131.706         -39.4677        -48.9439         -39.4681        -48.9557       -0.0470207         137.803
0.673                   -9.66352         131.392         -39.3708        -51.6271         -39.3711        -51.6362       -0.0476693         137.702
0.674                   -9.83641         131.103         -39.2743        -54.3067         -39.2746        -54.3128       -0.0483289         137.601
0.675                   -10.0087          130.84         -39.1783        -56.9827         -39.1784        -56.9854       -0.0490001         137.499
0.676                   -10.1801         130.601         -39.0825        -59.6548         -39.0825         -59.654       -0.0496834         137.397
0.677                   -10.3504         130.386         -38.9871        -62.3232         -38.9868        -62.3186       -0.0503795         137.294
0.678                   -10.5195         130.194         -38.8919        -64.9877         -38.8914        -64.9791       -0.0510889         137.191
0.679                    -10.687         130.024          -38.797        -67.6483         -38.7961        -67.6357       -0.0518122         137.087
0.68                    -10.8529         129.873         -38.7022        -70.3051         -38.7009        -70.2884       -0.0525503         136.982
0.681                    -11.017         129.742         -38.6074         -72.958         -38.6058        -72.9371       -0.0533038         136.877
0.682                   -11.1792         129.628         -38.5128        -75.6072         -38.5107        -75.5821       -0.0540734         136.771
0.683                   -11.3393         129.529         -38.4181        -78.2526         -38.4156        -78.2235       -0.0548599         136.665
0.684                   -11.4974         129.444         -38.3235        -80.8945         -38.3204        -80.8613       -0.0556641         136.558
0.685                   -11.6533         129.371         -38.2287        -83.5328         -38.2251        -83.4958       -0.0564869          136.45
0.686                   -11.8071         129.308         -38.1338        -86.1678         -38.1296        -86.1271        -0.057329         136.342
0.687                    -11.959         129.254         -38.0388        -88.7996         -38.0339        -88.7555       -0.0581914         136.232
0.688                   -12.1088         129.205         -37.9435        -91.4284          -37.938        -91.3811        -0.059075         136.123
0.689                   -12.2568         129.162          -37.848        -94.0544         -37.8418        -94.0041       -0.0599806         136.012
0.69                    -12.4032         129.122         -37.7523        -96.6779         -37.7453        -96.6249       -0.0609092         135.901
0.691                    -12.548         129.084         -37.6562        -99.2989         -37.6486        -99.2437       -0.0618618         135.789
0.692                   -12.6917         129.047         -37.5598        -101.918         -37.5514        -101.861       -0.0628393         135.677
0.693                   -12.8343         129.009          -37.463        -104.535          -37.454        -104.476       -0.0638427         135.563
0.694                   -12.9763          128.97         -37.3658         -107.15         -37.3561        -107.091        -0.064873         135.449
0.695                   -13.1179          128.93         -37.2683        -109.765         -37.2578        -109.704       -0.0659313         135.334
0.696                   -13.2595         128.887         -37.1703        -112.378         -37.1592        -112.317       -0.0670184         135.219
0.697                   -13.4013         128.842         -37.0719         -114.99         -37.0601        -114.929       -0.0681355         135.102