! TOUCHSTONE file generated by CST MICROWAVE STUDIO
! Date and time: Fri Oct  2 18:52:54 2020
! Project name: Scenario_1_Free_Space_out_of_line.cst
! Parameters = {Lambda=346.42; Step_1=17.321; dy1=156.889; dx1=173; L_HA=400; MT=2.54; Rad_Dielectric=30; Rad_Lower=7.3; Rad_Upper=30; a_HA=580; a_WG=246; b_HA=500; b_WG=121; c_HA=0; c_WG=187; d_feed=85; h_feed=15; h_lower=18; h_upper=40}
! Header version: 2018
! Port assignment regex: !\s*Touchstone port\s*([0-9]+)\s*=\s*(CST MWS port|CST DS port)\s*([0-9]+|Zmin|Zmax)\s*\(\"(.*)\"\)(\s*mode\s*([0-9]+))?.*
! Touchstone port assignment:
! Touchstone port 1 = CST MWS port 1 ("")
! Touchstone port 2 = CST MWS port 2 ("")
# GHz S DB R 50
0.5                    -0.151047        -122.619         -58.3933         154.239         -58.3933         154.239      -0.00642172         151.139
0.501                  -0.156147        -123.057         -58.2048         152.957         -58.2048         152.957      -0.00646428         151.073
0.502                  -0.161413        -123.497          -58.017         151.666          -58.017         151.667      -0.00650704         151.008
0.503                  -0.166849        -123.939         -57.8299         150.367         -57.8299         150.367      -0.00655002         150.943
0.504                  -0.172457        -124.384         -57.6434         149.059         -57.6434         149.059      -0.00659325         150.877
0.505                  -0.178241         -124.83         -57.4575         147.743         -57.4575         147.743      -0.00663677         150.811
0.506                  -0.184205        -125.279         -57.2724         146.419         -57.2724         146.419      -0.00668059         150.746
0.507                  -0.190351         -125.73         -57.0879         145.088         -57.0879         145.088      -0.00672475          150.68
0.508                  -0.196684        -126.183          -56.904         143.749          -56.904         143.749      -0.00676928         150.614
0.509                  -0.203208        -126.638         -56.7208         142.402         -56.7208         142.403      -0.00681421         150.548
0.51                   -0.209925        -127.096         -56.5383         141.049         -56.5383         141.049      -0.00685958         150.482
0.511                   -0.21684        -127.556         -56.3564         139.689         -56.3564         139.689       -0.0069054         150.416
0.512                  -0.223957        -128.018         -56.1752         138.323         -56.1752         138.323      -0.00695173          150.35
0.513                   -0.23128        -128.482         -55.9947          136.95         -55.9947          136.95      -0.00699858         150.284
0.514                  -0.238812        -128.949         -55.8149          135.57         -55.8149          135.57      -0.00704601         150.217
0.515                  -0.246558        -129.418         -55.6357         134.185         -55.6357         134.185      -0.00709403         150.151
0.516                  -0.254522        -129.889         -55.4572         132.794         -55.4572         132.794       -0.0071427         150.084
0.517                  -0.262708        -130.363         -55.2794         131.397         -55.2794         131.397      -0.00719205         150.018
0.518                  -0.271121        -130.839         -55.1022         129.995         -55.1022         129.995      -0.00724211         149.951
0.519                  -0.279765        -131.318         -54.9257         128.587         -54.9257         128.587      -0.00729292         149.884
0.52                   -0.288645        -131.798         -54.7499         127.175         -54.7499         127.174      -0.00734452         149.817
0.521                  -0.297765        -132.281         -54.5748         125.757         -54.5748         125.757      -0.00739696          149.75
0.522                  -0.307131        -132.767         -54.4003         124.334         -54.4003         124.334      -0.00745028         149.683
0.523                  -0.316746        -133.255         -54.2265         122.906         -54.2265         122.906      -0.00750451         149.616
0.524                  -0.326616        -133.745         -54.0533         121.474         -54.0533         121.474       -0.0075597         149.548
0.525                  -0.336746        -134.238         -53.8808         120.038         -53.8809         120.038      -0.00761589         149.481
0.526                   -0.34714        -134.733          -53.709         118.597          -53.709         118.597      -0.00767312         149.413
0.527                  -0.357805        -135.231         -53.5379         117.152         -53.5379         117.151      -0.00773145         149.346
0.528                  -0.368745        -135.731         -53.3674         115.703         -53.3674         115.702      -0.00779091         149.278
0.529                  -0.379966        -136.234         -53.1976         114.249         -53.1976         114.249      -0.00785155          149.21
0.53                   -0.391473        -136.739         -53.0284         112.792         -53.0285         112.792      -0.00791342         149.142
0.531                  -0.403273        -137.247           -52.86         111.331           -52.86         111.331      -0.00797656         149.074
0.532                  -0.415369        -137.757         -52.6921         109.867         -52.6921         109.867      -0.00804102         149.006
0.533                   -0.42777         -138.27         -52.5249         108.399         -52.5249         108.399      -0.00810685         148.938
0.534                  -0.440479        -138.786         -52.3584         106.928         -52.3584         106.927      -0.00817409          148.87
0.535                  -0.453504        -139.304         -52.1925         105.453         -52.1925         105.452       -0.0082428         148.801
0.536                   -0.46685        -139.824         -52.0273         103.975         -52.0273         103.974      -0.00831301         148.733
0.537                  -0.480525        -140.347         -51.8627         102.493         -51.8627         102.493      -0.00838479         148.664
0.538                  -0.494533        -140.873         -51.6988         101.009         -51.6988         101.008      -0.00845817         148.595
0.539                  -0.508882        -141.401         -51.5355         99.5214         -51.5355          99.521       -0.0085332         148.527
0.54                   -0.523578        -141.932         -51.3728         98.0311         -51.3729         98.0306      -0.00860995         148.458
0.541                  -0.538628        -142.466         -51.2108         96.5378         -51.2108         96.5374      -0.00868844         148.388
0.542                  -0.554038        -143.002         -51.0494         95.0418         -51.0495         95.0414      -0.00876874         148.319
0.543                  -0.569816        -143.541         -50.8887          93.543         -50.8887         93.5426      -0.00885089          148.25
0.544                  -0.585969        -144.082         -50.7286         92.0416         -50.7286         92.0411      -0.00893493         148.181
0.545                  -0.602503        -144.626         -50.5691         90.5375         -50.5691         90.5371      -0.00902092         148.111
0.546                  -0.619427        -145.173         -50.4103         89.0309         -50.4103         89.0305       -0.0091089         148.041
0.547                  -0.636746        -145.722          -50.252         87.5218         -50.2521         87.5214      -0.00919892         147.972
0.548                   -0.65447        -146.274         -50.0944         86.0103         -50.0945         86.0099      -0.00929102         147.902
0.549                  -0.672605        -146.829         -49.9375         84.4964         -49.9375          84.496      -0.00938526         147.832
0.55                    -0.69116        -147.386         -49.7811         82.9801         -49.7811         82.9798      -0.00948166         147.762
0.551                  -0.710142        -147.946         -49.6254         81.4616         -49.6254         81.4612      -0.00958028         147.691
0.552                  -0.729559        -148.509         -49.4702         79.9408         -49.4702         79.9405      -0.00968117         147.621
0.553                  -0.749419        -149.074         -49.3157         78.4178         -49.3157         78.4175      -0.00978435         147.551
0.554                   -0.76973        -149.642         -49.1618         76.8927         -49.1618         76.8924      -0.00988987          147.48
0.555                  -0.790501        -150.213         -49.0085         75.3655         -49.0085         75.3652      -0.00999777         147.409
0.556                  -0.811741        -150.786         -48.8558         73.8362         -48.8558         73.8359       -0.0101081         147.338
0.557                  -0.833457        -151.362         -48.7037         72.3048         -48.7037         72.3046       -0.0102209         147.267
0.558                  -0.855658        -151.941         -48.5522         70.7715         -48.5523         70.7712       -0.0103361         147.196
0.559                  -0.878354        -152.523         -48.4013         69.2362         -48.4014         69.2359       -0.0104539         147.125
0.56                   -0.901552        -153.107         -48.2511         67.6989         -48.2511         67.6987       -0.0105742         147.054
0.561                  -0.925263        -153.693         -48.1014         66.1598         -48.1014         66.1596       -0.0106971         146.982
0.562                  -0.949495        -154.282         -47.9523         64.6187         -47.9523         64.6186       -0.0108227         146.911
0.563                  -0.974257        -154.874         -47.8038         63.0759         -47.8038         63.0757       -0.0109508         146.839
0.564                  -0.999559        -155.469         -47.6559         61.5312         -47.6559         61.5311       -0.0110816         146.767
0.565                   -1.02541        -156.066         -47.5086         59.9848         -47.5086         59.9846       -0.0112151         146.695
0.566                   -1.05182        -156.666         -47.3618         58.4366         -47.3618         58.4365       -0.0113513         146.623
0.567                    -1.0788        -157.268         -47.2157         56.8867         -47.2157         56.8866       -0.0114903          146.55
0.568                   -1.10635        -157.873         -47.0701          55.335         -47.0702          55.335       -0.0116319         146.478
0.569                   -1.13449         -158.48         -46.9252         53.7818         -46.9252         53.7817       -0.0117763         146.405
0.57                    -1.16323         -159.09         -46.7808         52.2268         -46.7808         52.2268       -0.0119235         146.333
0.571                   -1.19258        -159.703          -46.637         50.6703          -46.637         50.6703       -0.0120734          146.26
0.572                   -1.22255        -160.318         -46.4938         49.1122         -46.4938         49.1122       -0.0122262         146.187
0.573                   -1.25314        -160.935         -46.3511         47.5525         -46.3511         47.5525       -0.0123817         146.114
0.574                   -1.28437        -161.555         -46.2091         45.9913         -46.2091         45.9913         -0.01254          146.04
0.575                   -1.31625        -162.177         -46.0676         44.4285         -46.0676         44.4286       -0.0127011         145.967
0.576                   -1.34878        -162.802         -45.9267         42.8643         -45.9267         42.8644        -0.012865         145.894
0.577                   -1.38198        -163.429         -45.7864         41.2987         -45.7864         41.2987       -0.0130316          145.82
0.578                   -1.41587        -164.058         -45.6466         39.7315         -45.6466         39.7316       -0.0132011         145.746
0.579                   -1.45044         -164.69         -45.5074          38.163         -45.5074         38.1631       -0.0133734         145.672
0.58                     -1.4857        -165.324         -45.3688         36.5932         -45.3688         36.5932       -0.0135485         145.598
0.581                   -1.52168         -165.96         -45.2307         35.0219         -45.2307          35.022       -0.0137263         145.523
0.582                   -1.55838        -166.599         -45.0933         33.4494         -45.0933         33.4495       -0.0139069         145.449
0.583                   -1.59581        -167.239         -44.9564         31.8755         -44.9563         31.8756       -0.0140902         145.374
0.584                   -1.63398        -167.882           -44.82         30.3004           -44.82         30.3005       -0.0142764           145.3
0.585                   -1.67289        -168.526         -44.6842         28.7241         -44.6842         28.7242       -0.0144652         145.225
0.586                   -1.71257        -169.173          -44.549         27.1466          -44.549         27.1467       -0.0146568         145.149
0.587                   -1.75302        -169.822         -44.4143         25.5679         -44.4143          25.568       -0.0148511         145.074
0.588                   -1.79426        -170.472         -44.2802          23.988         -44.2802         23.9881       -0.0150481         144.999
0.589                   -1.83628        -171.125         -44.1467          22.407         -44.1467         22.4072       -0.0152479         144.923
0.59                     -1.8791        -171.779         -44.0137          20.825         -44.0137         20.8251       -0.0154503         144.847
0.591                   -1.92274        -172.435         -43.8813         19.2419         -43.8812          19.242       -0.0156554         144.771
0.592                   -1.96719        -173.093         -43.7494         17.6578         -43.7493         17.6579       -0.0158632         144.695
0.593                   -2.01248        -173.752          -43.618         16.0727          -43.618         16.0728       -0.0160736         144.619
0.594                   -2.05861        -174.413         -43.4872         14.4867         -43.4872         14.4868       -0.0162868         144.543
0.595                   -2.10558        -175.076         -43.3569         12.8997         -43.3569         12.8998       -0.0165026         144.466
0.596                   -2.15342        -175.739         -43.2272         11.3119         -43.2272          11.312        -0.016721         144.389
0.597                   -2.20212        -176.405          -43.098         9.72321          -43.098         9.72331       -0.0169421         144.312
0.598                    -2.2517        -177.071         -42.9693         8.13371         -42.9693         8.13381       -0.0171659         144.235
0.599                   -2.30216        -177.739         -42.8412         6.54343         -42.8412         6.54353       -0.0173924         144.157
0.6                     -2.35352        -178.408         -42.7136         4.95241         -42.7136          4.9525       -0.0176215          144.08
0.601                   -2.40578        -179.079         -42.5865         3.36067         -42.5864         3.36076       -0.0178533         144.002
0.602                   -2.45895         -179.75         -42.4599         1.76826         -42.4599         1.76835       -0.0180879         143.924
0.603                   -2.51304         179.578         -42.3338        0.175197         -42.3338        0.175283       -0.0183251         143.846
0.604                   -2.56805         178.905         -42.2082        -1.41847         -42.2082        -1.41839       -0.0185652         143.768
0.605                   -2.62399         178.231         -42.0831        -3.01272         -42.0831        -3.01264        -0.018808         143.689
0.606                   -2.68087         177.557         -41.9586        -4.60751         -41.9585        -4.60743       -0.0190536          143.61
0.607                    -2.7387         176.882         -41.8345        -6.20281         -41.8344        -6.20274        -0.019302         143.531
0.608                   -2.79747         176.206         -41.7108        -7.79859         -41.7108        -7.79852       -0.0195534         143.452
0.609                   -2.85721          175.53         -41.5877        -9.39482         -41.5877        -9.39476       -0.0198077         143.373
0.61                     -2.9179         174.854          -41.465        -10.9915          -41.465        -10.9914       -0.0200649         143.293
0.611                   -2.97956         174.177         -41.3428        -12.5885         -41.3428        -12.5885       -0.0203252         143.213
0.612                   -3.04219           173.5         -41.2211        -14.1859          -41.221        -14.1859       -0.0205887         143.133
0.613                    -3.1058         172.823         -41.0997        -15.7836         -41.0997        -15.7836       -0.0208552         143.053
0.614                   -3.17039         172.146         -40.9789        -17.3817         -40.9789        -17.3816        -0.021125         142.972
0.615                   -3.23596         171.469         -40.8584          -18.98         -40.8584          -18.98       -0.0213982         142.891
0.616                   -3.30251         170.793         -40.7384        -20.5786         -40.7384        -20.5785       -0.0216747          142.81
0.617                   -3.37005         170.117         -40.6188        -22.1774         -40.6188        -22.1774       -0.0219548         142.729
0.618                   -3.43858         169.441         -40.4997        -23.7764         -40.4996        -23.7764       -0.0222384         142.648
0.619                    -3.5081         168.765         -40.3809        -25.3757         -40.3809        -25.3756       -0.0225257         142.566
0.62                     -3.5786          168.09         -40.2625        -26.9751         -40.2625        -26.9751       -0.0228169         142.484
0.621                    -3.6501         167.416         -40.1445        -28.5747         -40.1445        -28.5746       -0.0231119         142.402
0.622                   -3.72259         166.743         -40.0268        -30.1744         -40.0268        -30.1744       -0.0234111         142.319
0.623                   -3.79608          166.07         -39.9096        -31.7743         -39.9096        -31.7743       -0.0237144         142.236
0.624                   -3.87054         165.398         -39.7927        -33.3743         -39.7927        -33.3743        -0.024022         142.153
0.625                     -3.946         164.728         -39.6761        -34.9744         -39.6761        -34.9744       -0.0243341          142.07
0.626                   -4.02244         164.058         -39.5599        -36.5747         -39.5599        -36.5747       -0.0246508         141.986
0.627                   -4.09986          163.39          -39.444        -38.1751          -39.444        -38.1751       -0.0249723         141.902
0.628                   -4.17827         162.722         -39.3284        -39.7756         -39.3284        -39.7756       -0.0252988         141.818
0.629                   -4.25764         162.056         -39.2131        -41.3763         -39.2131        -41.3763       -0.0256303         141.734
0.63                    -4.33799         161.392         -39.0981        -42.9771         -39.0981        -42.9771       -0.0259672         141.649
0.631                   -4.41931         160.729         -38.9834         -44.578         -38.9834         -44.578       -0.0263096         141.564
0.632                   -4.50159         160.068          -38.869        -46.1791          -38.869        -46.1791       -0.0266577         141.479
0.633                   -4.58483         159.408         -38.7548        -47.7804         -38.7548        -47.7804       -0.0270117         141.393
0.634                   -4.66901         158.749         -38.6409        -49.3819          -38.641        -49.3819       -0.0273718         141.307
0.635                   -4.75415         158.093         -38.5273        -50.9836         -38.5273        -50.9836       -0.0277383         141.221
0.636                   -4.84022         157.438         -38.4139        -52.5855         -38.4139        -52.5855       -0.0281113         141.135
0.637                   -4.92723         156.785         -38.3007        -54.1877         -38.3007        -54.1877       -0.0284912         141.048
0.638                   -5.01517         156.134         -38.1878        -55.7902         -38.1878        -55.7902       -0.0288781          140.96
0.639                   -5.10403         155.485          -38.075         -57.393          -38.075         -57.393       -0.0292724         140.873
0.64                    -5.19381         154.837         -37.9625        -58.9962         -37.9625        -58.9962       -0.0296742         140.785
0.641                    -5.2845         154.191         -37.8501        -60.5999         -37.8501        -60.5998       -0.0300839         140.697
0.642                   -5.37609         153.548         -37.7379        -62.2039         -37.7379        -62.2039       -0.0305018         140.608
0.643                   -5.46859         152.906         -37.6259        -63.8085         -37.6259        -63.8085       -0.0309281         140.519
0.644                   -5.56198         152.266         -37.5141        -65.4136         -37.5141        -65.4136       -0.0313631          140.43
0.645                   -5.65626         151.627         -37.4024        -67.0193         -37.4024        -67.0193       -0.0318071         140.341
0.646                   -5.75143         150.991         -37.2909        -68.6257         -37.2909        -68.6257       -0.0322606         140.251
0.647                   -5.84749         150.356         -37.1795        -70.2328         -37.1795        -70.2327       -0.0327237          140.16
0.648                   -5.94443         149.723         -37.0683        -71.8406         -37.0683        -71.8406       -0.0331968          140.07
0.649                   -6.04225         149.092         -36.9572        -73.4493         -36.9572        -73.4493       -0.0336803         139.979
0.65                    -6.14096         148.463         -36.8462         -75.059         -36.8462        -75.0589       -0.0341745         139.887
0.651                   -6.24055         147.834         -36.7353        -76.6696         -36.7353        -76.6695       -0.0346798         139.795
0.652                   -6.34103         147.208         -36.6246        -78.2812         -36.6246        -78.2812       -0.0351966         139.703
0.653                    -6.4424         146.583         -36.5139         -79.894          -36.514         -79.894       -0.0357252         139.611
0.654                   -6.54468         145.959         -36.4034         -81.508         -36.4034         -81.508        -0.036266         139.518
0.655                   -6.64786         145.336          -36.293        -83.1233          -36.293        -83.1232       -0.0368194         139.424
0.656                   -6.75197         144.714         -36.1827        -84.7399         -36.1827        -84.7399       -0.0373859          139.33
0.657                   -6.85701         144.094         -36.0724         -86.358         -36.0724         -86.358       -0.0379658         139.236
0.658                     -6.963         143.474         -35.9623        -87.9776         -35.9623        -87.9776       -0.0385596         139.141
0.659                   -7.06997         142.855         -35.8523        -89.5989         -35.8523        -89.5988       -0.0391676         139.046
0.66                    -7.17792         142.236         -35.7423        -91.2218         -35.7424        -91.2218       -0.0397904         138.951
0.661                    -7.2869         141.618         -35.6325        -92.8466         -35.6325        -92.8466       -0.0404284         138.855
0.662                   -7.39693         141.001         -35.5228        -94.4733         -35.5228        -94.4732        -0.041082         138.759
0.663                   -7.50804         140.383         -35.4132        -96.1019         -35.4132        -96.1019       -0.0417517         138.662
0.664                   -7.62026         139.766         -35.3036        -97.7326         -35.3036        -97.7326        -0.042438         138.564
0.665                   -7.73364         139.149         -35.1942        -99.3655         -35.1942        -99.3655       -0.0431412         138.467
0.666                   -7.84823         138.531         -35.0849        -101.001         -35.0849        -101.001        -0.043862         138.368
0.667                   -7.96407         137.913         -34.9758        -102.638         -34.9758        -102.638       -0.0446008          138.27
0.668                   -8.08122         137.295         -34.8667        -104.278         -34.8667        -104.278        -0.045358         138.171
0.669                   -8.19973         136.676         -34.7578        -105.921         -34.7579        -105.921       -0.0461343         138.071
0.67                    -8.31967         136.057         -34.6491        -107.566         -34.6491        -107.566       -0.0469299         137.971
0.671                   -8.44112         135.437         -34.5405        -109.213         -34.5405        -109.213       -0.0477456          137.87
0.672                   -8.56413         134.817         -34.4321        -110.864         -34.4321        -110.864       -0.0485816         137.769
0.673                   -8.68879         134.195         -34.3238        -112.518         -34.3238        -112.518       -0.0494387         137.668
0.674                    -8.8152         133.573         -34.2158        -114.174         -34.2158        -114.174       -0.0503172         137.565
0.675                   -8.94343         132.951         -34.1079        -115.833         -34.1079        -115.833       -0.0512176         137.463
0.676                   -9.07358         132.327         -34.0003        -117.496         -34.0003        -117.496       -0.0521405          137.36
0.677                   -9.20576         131.703         -33.8929        -119.162         -33.8929        -119.162       -0.0530862         137.256
0.678                   -9.34007         131.079         -33.7858        -120.831         -33.7858        -120.831       -0.0540554         137.152
0.679                   -9.47663         130.454         -33.6789        -122.503         -33.6789        -122.503       -0.0550485         137.047
0.68                    -9.61555          129.83         -33.5724        -124.178         -33.5724        -124.178        -0.056066         136.942
0.681                   -9.75697         129.206         -33.4661        -125.857         -33.4661        -125.857       -0.0571082         136.836
0.682                     -9.901         128.582         -33.3601         -127.54         -33.3601         -127.54       -0.0581757         136.729
0.683                   -10.0478         127.959         -33.2546        -129.226         -33.2545        -129.226        -0.059269         136.622
0.684                   -10.1975         127.337         -33.1493        -130.915         -33.1493        -130.915       -0.0603884         136.515
0.685                   -10.3502         126.718         -33.0445        -132.608         -33.0445        -132.608       -0.0615343         136.407
0.686                   -10.5061         126.101         -32.9401        -134.304         -32.9401        -134.304       -0.0627072         136.298
0.687                   -10.6654         125.487         -32.8361        -136.004         -32.8361        -136.004       -0.0639074         136.189
0.688                   -10.8282         124.877         -32.7326        -137.708         -32.7325        -137.708       -0.0651353         136.079
0.689                   -10.9947         124.272         -32.6295        -139.414         -32.6295        -139.415       -0.0663912         135.969
0.69                     -11.165         123.672          -32.527        -141.125          -32.527        -141.125       -0.0676756         135.857
0.691                   -11.3393          123.08          -32.425        -142.839          -32.425        -142.839       -0.0689885         135.746
0.692                   -11.5178         122.495         -32.3235        -144.556         -32.3235        -144.556       -0.0703305         135.633
0.693                   -11.7007          121.92         -32.2227        -146.277         -32.2227        -146.277       -0.0717016          135.52
0.694                   -11.8882         121.356         -32.1224        -148.001         -32.1224        -148.001       -0.0731022         135.407
0.695                   -12.0804         120.804         -32.0228        -149.728         -32.0228        -149.728       -0.0745324         135.293
0.696                   -12.2775         120.266         -31.9239        -151.458         -31.9239        -151.458       -0.0759925         135.178
0.697                   -12.4797         119.744         -31.8256        -153.191         -31.8256        -153.191       -0.0774826         135.062