! TOUCHSTONE file generated by CST MICROWAVE STUDIO
! Date and time: Fri Oct  2 19:09:45 2020
! Project name: Scenario_1_Free_Space_out_of_line.cst
! Parameters = {Lambda=346.42; Step_1=17.321; dy1=156.889; dx1=866; L_HA=400; MT=2.54; Rad_Dielectric=30; Rad_Lower=7.3; Rad_Upper=30; a_HA=580; a_WG=246; b_HA=500; b_WG=121; c_HA=0; c_WG=187; d_feed=85; h_feed=15; h_lower=18; h_upper=40}
! Header version: 2018
! Port assignment regex: !\s*Touchstone port\s*([0-9]+)\s*=\s*(CST MWS port|CST DS port)\s*([0-9]+|Zmin|Zmax)\s*\(\"(.*)\"\)(\s*mode\s*([0-9]+))?.*
! Touchstone port assignment:
! Touchstone port 1 = CST MWS port 1 ("")
! Touchstone port 2 = CST MWS port 2 ("")
# GHz S DB R 50
0.5                    -0.148179        -122.578         -63.7728         139.861         -63.7728         139.861      -0.00662781         151.133
0.501                  -0.151628        -123.037          -63.607         137.846         -63.6067         137.846      -0.00668987         151.067
0.502                  -0.155421        -123.498         -63.4392         135.821         -63.4386         135.821      -0.00675282         151.002
0.503                  -0.159558        -123.961         -63.2694         133.785         -63.2687         133.786      -0.00681668         150.936
0.504                  -0.164039        -124.425         -63.0979          131.74         -63.0969          131.74      -0.00688146         150.871
0.505                  -0.168866        -124.891         -62.9245         129.684         -62.9233         129.685      -0.00694715         150.805
0.506                  -0.174038        -125.358         -62.7494         127.618          -62.748         127.619      -0.00701377         150.739
0.507                  -0.179557        -125.828         -62.5726         125.541          -62.571         125.542      -0.00708133         150.674
0.508                  -0.185423        -126.299         -62.3941         123.455         -62.3924         123.456      -0.00714984         150.608
0.509                  -0.191636        -126.771         -62.2141         121.358         -62.2122         121.359      -0.00721929         150.542
0.51                   -0.198196        -127.245         -62.0326         119.251         -62.0305         119.252      -0.00728971         150.476
0.511                  -0.205104        -127.721         -61.8496         117.134         -61.8474         117.135      -0.00736109         150.409
0.512                  -0.212361        -128.199         -61.6652         115.006         -61.6629         115.008      -0.00743345         150.343
0.513                  -0.219965        -128.678         -61.4796         112.868         -61.4772          112.87       -0.0075068         150.277
0.514                  -0.227918        -129.158         -61.2927          110.72         -61.2902         110.722      -0.00758114          150.21
0.515                   -0.23622        -129.641         -61.1046         108.562         -61.1021         108.564      -0.00765648         150.144
0.516                   -0.24487        -130.124         -60.9155         106.393         -60.9129         106.395      -0.00773283         150.077
0.517                  -0.253869         -130.61         -60.7254         104.214         -60.7227         104.216       -0.0078102         150.011
0.518                  -0.263215        -131.097         -60.5343         102.024         -60.5316         102.026       -0.0078886         149.944
0.519                  -0.272911        -131.585         -60.3424         99.8239         -60.3396         99.8261      -0.00796803         149.877
0.52                   -0.282954        -132.075         -60.1498         97.6134         -60.1469         97.6156       -0.0080485          149.81
0.521                  -0.293345        -132.567         -59.9565         95.3924         -59.9536         95.3947      -0.00813002         149.743
0.522                  -0.304083         -133.06         -59.7625         93.1609         -59.7596         93.1633      -0.00821261         149.676
0.523                  -0.315169        -133.555         -59.5681          90.919         -59.5652         90.9213      -0.00829626         149.609
0.524                  -0.326601        -134.051         -59.3732         88.6666         -59.3703         88.6689      -0.00838098         149.542
0.525                   -0.33838        -134.549         -59.1781         86.4037         -59.1751         86.4061      -0.00846679         149.475
0.526                  -0.350504        -135.048         -58.9826         84.1304         -58.9797         84.1328      -0.00855369         149.407
0.527                  -0.362974        -135.549          -58.787         81.8468         -58.7841          81.849      -0.00864169          149.34
0.528                  -0.375788        -136.051         -58.5914         79.5528         -58.5885          79.555      -0.00873079         149.272
0.529                  -0.388947        -136.555         -58.3958         77.2485         -58.3929         77.2507      -0.00882101         149.204
0.53                   -0.402449         -137.06         -58.2002          74.934         -58.1975         74.9361      -0.00891236         149.136
0.531                  -0.416294        -137.567         -58.0049         72.6094         -58.0022         72.6115      -0.00900483         149.069
0.532                   -0.43048        -138.075         -57.8099         70.2748         -57.8072         70.2768      -0.00909844         149.001
0.533                  -0.445009        -138.585         -57.6153         67.9303         -57.6126         67.9323      -0.00919319         148.932
0.534                  -0.459877        -139.096         -57.4211         65.5762         -57.4185          65.578       -0.0092891         148.864
0.535                  -0.475085        -139.609         -57.2274         63.2124         -57.2249         63.2142      -0.00938616         148.796
0.536                  -0.490632        -140.123         -57.0344         60.8393          -57.032          60.841      -0.00948439         148.728
0.537                  -0.506518        -140.639         -56.8422         58.4571         -56.8398         58.4587      -0.00958379         148.659
0.538                   -0.52274        -141.157         -56.6507         56.0658         -56.6484         56.0674      -0.00968436         148.591
0.539                  -0.539298        -141.676         -56.4601         53.6659         -56.4579         53.6674      -0.00978612         148.522
0.54                   -0.556192        -142.196         -56.2704         51.2575         -56.2683         51.2589      -0.00988907         148.453
0.541                  -0.573421        -142.718         -56.0818          48.841         -56.0797         48.8423      -0.00999321         148.384
0.542                  -0.590983        -143.242         -55.8942         46.4166         -55.8923         46.4179       -0.0100985         148.315
0.543                  -0.608877        -143.767         -55.7079         43.9847          -55.706         43.9859       -0.0102051         148.246
0.544                  -0.627104        -144.293         -55.5227         41.5456         -55.5209         41.5467       -0.0103128         148.177
0.545                  -0.645662        -144.822         -55.3388         39.0996         -55.3371         39.1007       -0.0104218         148.108
0.546                   -0.66455        -145.352         -55.1563         36.6472         -55.1547         36.6482       -0.0105319         148.038
0.547                  -0.683767        -145.883         -54.9752         34.1887         -54.9737         34.1897       -0.0106433         147.969
0.548                  -0.703313        -146.416         -54.7955         31.7244          -54.794         31.7254       -0.0107559         147.899
0.549                  -0.723187        -146.951         -54.6173         29.2549         -54.6159         29.2559       -0.0108697         147.829
0.55                   -0.743388        -147.488         -54.4406         26.7806         -54.4393         26.7815       -0.0109848         147.759
0.551                  -0.763915        -148.026         -54.2654         24.3018         -54.2642         24.3026        -0.011101         147.689
0.552                  -0.784769        -148.566         -54.0919         21.8189         -54.0908         21.8198       -0.0112185         147.619
0.553                  -0.805949        -149.108         -53.9199         19.3326         -53.9189         19.3334       -0.0113372         147.549
0.554                  -0.827454        -149.651         -53.7496          16.843         -53.7486         16.8439       -0.0114571         147.479
0.555                  -0.849284        -150.197         -53.5809         14.3508           -53.58         14.3517       -0.0115782         147.408
0.556                  -0.871439        -150.744         -53.4138         11.8564          -53.413         11.8573       -0.0117005         147.338
0.557                  -0.893919        -151.293         -53.2484         9.36014         -53.2476         9.36101        -0.011824         147.267
0.558                  -0.916724        -151.844         -53.0846          6.8625         -53.0839         6.86339       -0.0119488         147.196
0.559                  -0.939854        -152.396         -52.9224         4.36389         -52.9218          4.3648       -0.0120747         147.125
0.56                    -0.96331        -152.951         -52.7619         1.86472         -52.7614         1.86566       -0.0122018         147.054
0.561                  -0.987092        -153.508          -52.603         -0.6346         -52.6025        -0.63364       -0.0123301         146.983
0.562                    -1.0112        -154.067         -52.4457        -3.13369         -52.4452        -3.13271       -0.0124595         146.912
0.563                   -1.03564        -154.628         -52.2899        -5.63219         -52.2895        -5.63118       -0.0125901          146.84
0.564                   -1.06041        -155.191         -52.1356        -8.12974         -52.1353         -8.1287       -0.0127219         146.769
0.565                    -1.0855        -155.756         -51.9829         -10.626         -51.9826        -10.6249       -0.0128548         146.697
0.566                   -1.11093        -156.324         -51.8316        -13.1207         -51.8314        -13.1196       -0.0129889         146.625
0.567                    -1.1367        -156.894         -51.6818        -15.6135         -51.6816        -15.6124       -0.0131241         146.553
0.568                    -1.1628        -157.466         -51.5333        -18.1041         -51.5332         -18.103       -0.0132604         146.481
0.569                   -1.18924         -158.04         -51.3862        -20.5923         -51.3861        -20.5912       -0.0133978         146.409
0.57                    -1.21603        -158.618         -51.2404        -23.0779         -51.2403        -23.0768       -0.0135364         146.337
0.571                   -1.24316        -159.197         -51.0959        -25.5607         -51.0958        -25.5595        -0.013676         146.264
0.572                   -1.27064        -159.779         -50.9525        -28.0405         -50.9524        -28.0393       -0.0138168         146.191
0.573                   -1.29848        -160.364         -50.8103        -30.5171         -50.8102        -30.5159       -0.0139587         146.119
0.574                   -1.32667        -160.952         -50.6691        -32.9904         -50.6691        -32.9892       -0.0141017         146.046
0.575                   -1.35523        -161.542         -50.5291        -35.4604          -50.529        -35.4592       -0.0142458         145.973
0.576                   -1.38417        -162.135           -50.39        -37.9268           -50.39        -37.9257        -0.014391         145.899
0.577                   -1.41348        -162.731         -50.2518        -40.3898         -50.2518        -40.3887       -0.0145375         145.826
0.578                   -1.44317        -163.331         -50.1145        -42.8492         -50.1146        -42.8481       -0.0146851         145.752
0.579                   -1.47326        -163.933         -49.9781         -45.305         -49.9781         -45.304       -0.0148339         145.679
0.58                    -1.50375        -164.538         -49.8424        -47.7573         -49.8425        -47.7563        -0.014984         145.605
0.581                   -1.53465        -165.147         -49.7075        -50.2061         -49.7075        -50.2052       -0.0151355         145.531
0.582                   -1.56598        -165.759         -49.5733        -52.6515         -49.5733        -52.6505       -0.0152883         145.457
0.583                   -1.59773        -166.375         -49.4396        -55.0934         -49.4397        -55.0925       -0.0154426         145.382
0.584                   -1.62993        -166.994         -49.3066        -57.5321         -49.3066        -57.5313       -0.0155985         145.308
0.585                   -1.66259        -167.617         -49.1741        -59.9675         -49.1741        -59.9668       -0.0157561         145.233
0.586                   -1.69573        -168.243         -49.0421        -62.3999         -49.0421        -62.3993       -0.0159155         145.158
0.587                   -1.72935        -168.874         -48.9105        -64.8294         -48.9106        -64.8288       -0.0160768         145.083
0.588                   -1.76348        -169.508         -48.7794        -67.2561         -48.7794        -67.2556       -0.0162402         145.008
0.589                   -1.79813        -170.146         -48.6487        -69.6802         -48.6487        -69.6798       -0.0164059         144.932
0.59                    -1.83332        -170.789         -48.5182        -72.1018         -48.5183        -72.1015        -0.016574         144.857
0.591                   -1.86908        -171.435         -48.3881        -74.5212         -48.3881         -74.521       -0.0167448         144.781
0.592                   -1.90542        -172.086         -48.2583        -76.9386         -48.2583        -76.9385       -0.0169183         144.705
0.593                   -1.94237        -172.742         -48.1287        -79.3541         -48.1287        -79.3541       -0.0170949         144.629
0.594                   -1.97995        -173.401         -47.9994         -81.768         -47.9994         -81.768       -0.0172747         144.553
0.595                    -2.0182        -174.066         -47.8702        -84.1804         -47.8702        -84.1805        -0.017458         144.476
0.596                   -2.05714        -174.735         -47.7413        -86.5916         -47.7412        -86.5918        -0.017645         144.399
0.597                   -2.09679        -175.409         -47.6125        -89.0018         -47.6124        -89.0021       -0.0178358         144.322
0.598                   -2.13721        -176.087         -47.4838        -91.4112         -47.4838        -91.4116       -0.0180306         144.245
0.599                   -2.17841        -176.771         -47.3553          -93.82         -47.3553        -93.8206       -0.0182297         144.168
0.6                     -2.22043        -177.459         -47.2269        -96.2285         -47.2269        -96.2292       -0.0184331         144.091
0.601                   -2.26332        -178.153         -47.0987        -98.6369         -47.0987        -98.6376       -0.0186411         144.013
0.602                   -2.30711        -178.851         -46.9706        -101.045         -46.9705        -101.046       -0.0188538         143.935
0.603                   -2.35184        -179.555         -46.8426        -103.454         -46.8425        -103.455       -0.0190712         143.857
0.604                   -2.39757         179.736         -46.7147        -105.863         -46.7146        -105.864       -0.0192934         143.778
0.605                   -2.44433         179.022         -46.5869        -108.273         -46.5868        -108.274       -0.0195205           143.7
0.606                   -2.49217         178.303         -46.4592        -110.684         -46.4592        -110.685       -0.0197525         143.621
0.607                   -2.54115         177.579         -46.3317        -113.096         -46.3317        -113.097       -0.0199895         143.542
0.608                   -2.59132          176.85         -46.2044        -115.509         -46.2043         -115.51       -0.0202313         143.463
0.609                   -2.64273         176.115         -46.0771        -117.923         -46.0771        -117.925        -0.020478         143.384
0.61                    -2.69543         175.376         -45.9501        -120.339           -45.95        -120.341       -0.0207295         143.304
0.611                   -2.74948         174.632         -45.8232        -122.757         -45.8231        -122.758       -0.0209858         143.225
0.612                   -2.80494         173.884         -45.6965        -125.176         -45.6965        -125.178       -0.0212468         143.145
0.613                   -2.86187         173.131           -45.57        -127.598           -45.57        -127.599       -0.0215124         143.064
0.614                   -2.92032         172.373         -45.4438        -130.021         -45.4438        -130.023       -0.0217825         142.984
0.615                   -2.98035         171.612         -45.3178        -132.447         -45.3178        -132.448       -0.0220571         142.903
0.616                   -3.04203         170.846         -45.1921        -134.874          -45.192        -134.876       -0.0223361         142.822
0.617                    -3.1054         170.077         -45.0667        -137.304         -45.0666        -137.306       -0.0226195         142.741
0.618                   -3.17054         169.305         -44.9416        -139.737         -44.9415        -139.738        -0.022907          142.66
0.619                   -3.23748          168.53         -44.8168        -142.171         -44.8167        -142.173       -0.0231988         142.578
0.62                    -3.30629         167.753         -44.6924        -144.608         -44.6923         -144.61       -0.0234946         142.497
0.621                   -3.37701         166.973         -44.5683        -147.048         -44.5683        -147.049       -0.0237946         142.415
0.622                   -3.44969         166.192         -44.4447        -149.489         -44.4447        -149.491       -0.0240986         142.332
0.623                   -3.52437          165.41         -44.3215        -151.933         -44.3215        -151.934       -0.0244066          142.25
0.624                   -3.60109         164.627         -44.1987        -154.379         -44.1987        -154.381       -0.0247185         142.167
0.625                   -3.67988         163.844         -44.0765        -156.828         -44.0765        -156.829       -0.0250345         142.084
0.626                   -3.76076         163.061         -43.9547        -159.278         -43.9547        -159.279       -0.0253544         142.001
0.627                   -3.84377          162.28         -43.8334        -161.731         -43.8334        -161.732       -0.0256783         141.917
0.628                    -3.9289           161.5         -43.7127        -164.185         -43.7127        -164.187       -0.0260062         141.833
0.629                   -4.01617         160.723         -43.5925        -166.642         -43.5925        -166.643       -0.0263382         141.749
0.63                    -4.10557         159.949         -43.4729          -169.1         -43.4729        -169.101       -0.0266742         141.665
0.631                   -4.19709         159.179         -43.3539         -171.56         -43.3538        -171.561       -0.0270143          141.58
0.632                   -4.29071         158.412         -43.2354        -174.021         -43.2354        -174.022       -0.0273585         141.496
0.633                   -4.38641         157.651         -43.1176        -176.483         -43.1176        -176.484        -0.027707          141.41
0.634                   -4.48414         156.895         -43.0004        -178.947         -43.0004        -178.948       -0.0280598         141.325
0.635                   -4.58387         156.146         -42.8838         178.588         -42.8838         178.588        -0.028417         141.239
0.636                   -4.68553         155.403         -42.7679         176.123         -42.7678         176.122       -0.0287786         141.153
0.637                   -4.78908         154.668         -42.6526         173.657         -42.6525         173.656       -0.0291447         141.067
0.638                   -4.89443          153.94         -42.5379          171.19         -42.5379          171.19       -0.0295156          140.98
0.639                   -5.00153          153.22         -42.4239         168.723         -42.4238         168.723       -0.0298912         140.893
0.64                    -5.11028         152.509         -42.3105         166.256         -42.3105         166.256       -0.0302716         140.806
0.641                    -5.2206         151.807         -42.1977         163.789         -42.1977         163.789       -0.0306571         140.718
0.642                   -5.33242         151.114         -42.0856         161.323         -42.0856         161.322       -0.0310478          140.63
0.643                   -5.44563         150.431         -41.9741         158.856         -41.9741         158.856       -0.0314437         140.542
0.644                   -5.56014         149.757         -41.8632         156.391         -41.8632         156.391       -0.0318451         140.453
0.645                   -5.67587         149.092         -41.7529         153.926         -41.7529         153.926       -0.0322521         140.364
0.646                   -5.79273         148.438         -41.6432         151.462         -41.6432         151.462       -0.0326649         140.275
0.647                   -5.91062         147.793         -41.5341         148.999          -41.534         148.999       -0.0330837         140.185
0.648                   -6.02945         147.157         -41.4255         146.537         -41.4254         146.537       -0.0335086         140.095
0.649                   -6.14916         146.531         -41.3174         144.077         -41.3173         144.077       -0.0339398         140.005
0.65                    -6.26966         145.914         -41.2099         141.618         -41.2098         141.618       -0.0343776         139.914
0.651                   -6.39088         145.305         -41.1028         139.161         -41.1027         139.161       -0.0348223         139.823
0.652                   -6.51276         144.706         -40.9962         136.705         -40.9961         136.706       -0.0352739         139.731
0.653                   -6.63525         144.114           -40.89         134.252         -40.8899         134.252       -0.0357328         139.639
0.654                   -6.75829          143.53         -40.7842           131.8         -40.7841           131.8       -0.0361993         139.547
0.655                   -6.88186         142.953         -40.6788          129.35         -40.6788          129.35       -0.0366735         139.454
0.656                   -7.00593         142.383         -40.5738         126.902         -40.5737         126.902       -0.0371559         139.361
0.657                   -7.13047         141.819         -40.4691         124.457          -40.469         124.457       -0.0376466         139.268
0.658                   -7.25548         141.262         -40.3647         122.013         -40.3646         122.013        -0.038146         139.174
0.659                   -7.38096         140.709         -40.2606         119.571         -40.2605         119.571       -0.0386545         139.079
0.66                    -7.50692         140.162         -40.1567         117.132         -40.1566         117.132       -0.0391723         138.984
0.661                   -7.63338         139.619          -40.053         114.694         -40.0529         114.694       -0.0396999         138.889
0.662                   -7.76036          139.08         -39.9495         112.259         -39.9494         112.259       -0.0402376         138.793
0.663                   -7.88792         138.545         -39.8462         109.826         -39.8461         109.826       -0.0407857         138.697
0.664                    -8.0161         138.012          -39.743         107.394         -39.7429         107.394       -0.0413448         138.601
0.665                   -8.14495         137.482         -39.6399         104.965         -39.6398         104.965       -0.0419151         138.503
0.666                   -8.27454         136.955         -39.5369         102.537         -39.5368         102.537       -0.0424972         138.406
0.667                   -8.40495          136.43         -39.4339         100.111         -39.4338         100.111       -0.0430915         138.308
0.668                   -8.53625         135.906          -39.331         97.6866         -39.3309         97.6867       -0.0436984         138.209
0.669                   -8.66854         135.384          -39.228         95.2637          -39.228         95.2638       -0.0443185          138.11
0.67                    -8.80191         134.863         -39.1251         92.8422          -39.125         92.8422       -0.0449521         138.011
0.671                   -8.93646         134.344         -39.0221         90.4219          -39.022          90.422       -0.0455999         137.911
0.672                   -9.07231         133.825         -38.9191         88.0028          -38.919         88.0028       -0.0462624          137.81
0.673                   -9.20956         133.308          -38.816         85.5845         -38.8159         85.5845         -0.04694         137.709
0.674                   -9.34834         132.791         -38.7128         83.1671         -38.7128         83.1671       -0.0476334         137.607
0.675                   -9.48878         132.276         -38.6095         80.7503         -38.6095         80.7502        -0.048343         137.505
0.676                     -9.631         131.762         -38.5062         78.3339         -38.5061         78.3339       -0.0490694         137.402
0.677                   -9.77515          131.25         -38.4027         75.9179         -38.4027         75.9178       -0.0498132         137.299
0.678                   -9.92137         130.739         -38.2991         73.5019         -38.2991         73.5018        -0.050575         137.195
0.679                   -10.0698         130.231         -38.1954         71.0858         -38.1954         71.0858       -0.0513554         137.091
0.68                    -10.2206         129.725         -38.0915         68.6696         -38.0915         68.6695       -0.0521548         136.986
0.681                   -10.3739         129.222         -37.9876         66.2529         -37.9876         66.2528        -0.052974          136.88
0.682                   -10.5299         128.724         -37.8835         63.8356         -37.8835         63.8355       -0.0538135         136.774
0.683                   -10.6888         128.229         -37.7793         61.4175         -37.7793         61.4174       -0.0546738         136.667
0.684                   -10.8507         127.741          -37.675         58.9985          -37.675         58.9984       -0.0555555          136.56
0.685                   -11.0157         127.258         -37.5706         56.5783         -37.5706         56.5783       -0.0564593         136.452
0.686                   -11.1841         126.783         -37.4661         54.1569         -37.4661         54.1569       -0.0573857         136.343
0.687                   -11.3561         126.316         -37.3615         51.7341         -37.3615         51.7341       -0.0583351         136.234
0.688                   -11.5318          125.86         -37.2568         49.3097         -37.2569         49.3097       -0.0593083         136.124
0.689                   -11.7113         125.414         -37.1521         46.8836         -37.1522         46.8836       -0.0603056         136.013
0.69                     -11.895         124.982         -37.0474         44.4556         -37.0474         44.4556       -0.0613276         135.902
0.691                   -12.0829         124.565         -36.9426         42.0257         -36.9427         42.0257       -0.0623748          135.79
0.692                   -12.2752         124.165         -36.8379         39.5937         -36.8379         39.5938       -0.0634478         135.677
0.693                   -12.4721         123.784         -36.7332         37.1596         -36.7332         37.1596       -0.0645468         135.564
0.694                   -12.6738         123.425         -36.6285         34.7231         -36.6286         34.7232       -0.0656725          135.45
0.695                   -12.8804          123.09         -36.5239         32.2844          -36.524         32.2845       -0.0668253         135.335
0.696                   -13.0921         122.783         -36.4194         29.8433         -36.4195         29.8434       -0.0680055          135.22
0.697                   -13.3089         122.507         -36.3151         27.3998         -36.3151         27.3999       -0.0692136         135.104