! TOUCHSTONE file generated by CST MICROWAVE STUDIO
! Date and time: Fri Oct  2 18:39:59 2020
! Project name: Scenario_1_Free_Space_out_of_line.cst
! Parameters = {Lambda=346.42; Step_1=17.321; dy1=87.525; dx1=173; L_HA=400; MT=2.54; Rad_Dielectric=30; Rad_Lower=7.3; Rad_Upper=30; a_HA=580; a_WG=246; b_HA=500; b_WG=121; c_HA=0; c_WG=187; d_feed=85; h_feed=15; h_lower=18; h_upper=40}
! Header version: 2018
! Port assignment regex: !\s*Touchstone port\s*([0-9]+)\s*=\s*(CST MWS port|CST DS port)\s*([0-9]+|Zmin|Zmax)\s*\(\"(.*)\"\)(\s*mode\s*([0-9]+))?.*
! Touchstone port assignment:
! Touchstone port 1 = CST MWS port 1 ("")
! Touchstone port 2 = CST MWS port 2 ("")
# GHz S DB R 50
0.5                    -0.156588        -122.739         -56.8507         163.317         -56.8507         163.317      -0.00667935         151.127
0.501                  -0.161396        -123.203         -56.6689         161.976         -56.6687         161.976      -0.00679361         151.062
0.502                  -0.166468        -123.669         -56.4872         160.633         -56.4869         160.631      -0.00690638         150.996
0.503                  -0.171801        -124.135         -56.3058         159.286         -56.3052         159.284      -0.00701748         150.931
0.504                  -0.177394        -124.603         -56.1245         157.936         -56.1238         157.933      -0.00712673         150.865
0.505                  -0.183244        -125.071         -55.9435         156.583         -55.9427          156.58      -0.00723393           150.8
0.506                  -0.189351        -125.541         -55.7627         155.227         -55.7617         155.223      -0.00733892         150.734
0.507                  -0.195713        -126.012         -55.5821         153.868         -55.5811         153.864      -0.00744149         150.669
0.508                  -0.202327        -126.484         -55.4018         152.506         -55.4007         152.501      -0.00754148         150.603
0.509                  -0.209193        -126.957         -55.2218          151.14         -55.2206         151.135       -0.0076387         150.537
0.51                   -0.216309        -127.431         -55.0421         149.772         -55.0408         149.766      -0.00773298         150.471
0.511                  -0.223673        -127.907         -54.8627           148.4         -54.8613         148.394      -0.00782417         150.405
0.512                  -0.231283        -128.383         -54.6836         147.026         -54.6821         147.019       -0.0079121         150.339
0.513                  -0.239138        -128.861         -54.5048         145.648         -54.5033         145.641      -0.00799665         150.273
0.514                  -0.247237        -129.341         -54.3264         144.267         -54.3249          144.26      -0.00807767         150.207
0.515                  -0.255579        -129.821         -54.1484         142.884         -54.1468         142.876      -0.00815507         150.141
0.516                  -0.264161        -130.303         -53.9708         141.497         -53.9691         141.489      -0.00822875         150.074
0.517                  -0.272983        -130.786         -53.7935         140.107         -53.7919         140.099      -0.00829864         150.008
0.518                  -0.282043        -131.271         -53.6166         138.714          -53.615         138.706       -0.0083647         149.942
0.519                   -0.29134        -131.756         -53.4402         137.318         -53.4385          137.31      -0.00842689         149.875
0.52                   -0.300874        -132.244         -53.2641         135.919         -53.2625         135.911      -0.00848524         149.808
0.521                  -0.310643        -132.732         -53.0885         134.518         -53.0869         134.509      -0.00853976         149.742
0.522                  -0.320647        -133.222         -52.9134         133.113         -52.9117         133.105      -0.00859053         149.675
0.523                  -0.330885        -133.714         -52.7387         131.706          -52.737         131.697      -0.00863764         149.608
0.524                  -0.341356        -134.207         -52.5645         130.296         -52.5628         130.287      -0.00868122         149.541
0.525                   -0.35206        -134.702         -52.3907         128.883         -52.3891         128.874      -0.00872142         149.474
0.526                  -0.362997        -135.198         -52.2174         127.467         -52.2158         127.458      -0.00875843         149.406
0.527                  -0.374167        -135.696         -52.0446         126.049          -52.043          126.04      -0.00879249         149.339
0.528                  -0.385569        -136.195         -51.8722         124.628         -51.8707         124.619      -0.00882384         149.271
0.529                  -0.397204        -136.696         -51.7004         123.205         -51.6989         123.196      -0.00885276         149.204
0.53                   -0.409073        -137.199         -51.5291         121.779         -51.5276          121.77      -0.00887958         149.136
0.531                  -0.421177        -137.704         -51.3582          120.35         -51.3568         120.341      -0.00890462         149.068
0.532                  -0.433515        -138.211         -51.1879         118.919         -51.1866          118.91      -0.00892825             149
0.533                   -0.44609        -138.719         -51.0181         117.485         -51.0168         117.477      -0.00895084         148.932
0.534                  -0.458902        -139.229         -50.8488          116.05         -50.8475         116.041      -0.00897278         148.864
0.535                  -0.471954        -139.742         -50.6801         114.611         -50.6788         114.603      -0.00899449         148.795
0.536                  -0.485247        -140.256         -50.5118         113.171         -50.5106         113.162      -0.00901638         148.727
0.537                  -0.498784        -140.772         -50.3441         111.728         -50.3429          111.72      -0.00903885         148.658
0.538                  -0.512567        -141.291         -50.1769         110.283         -50.1758         110.275      -0.00906235         148.589
0.539                  -0.526598        -141.811         -50.0102         108.836         -50.0091         108.828      -0.00908727          148.52
0.54                   -0.540882        -142.334          -49.844         107.386          -49.843         107.379      -0.00911403         148.451
0.541                  -0.555422        -142.859         -49.6784         105.935         -49.6774         105.927      -0.00914302         148.382
0.542                  -0.570221        -143.387         -49.5132         104.481         -49.5123         104.474      -0.00917463         148.313
0.543                  -0.585285        -143.917         -49.3486         103.026         -49.3478         103.019      -0.00920922         148.243
0.544                  -0.600617        -144.449         -49.1845         101.568         -49.1837         101.561      -0.00924713         148.174
0.545                  -0.616224        -144.984          -49.021         100.109         -49.0202         100.102      -0.00928869         148.104
0.546                   -0.63211        -145.521         -48.8579         98.6474         -48.8572         98.6409      -0.00933421         148.034
0.547                  -0.648281        -146.061         -48.6953          97.184         -48.6947         97.1778      -0.00938394         147.964
0.548                  -0.664745        -146.603         -48.5333         95.7188         -48.5326         95.7128      -0.00943814         147.894
0.549                  -0.681509        -147.149         -48.3717         94.2517         -48.3711          94.246      -0.00949703         147.824
0.55                   -0.698579        -147.697         -48.2107         92.7828         -48.2101         92.7774      -0.00956079         147.753
0.551                  -0.715964        -148.248         -48.0501         91.3121         -48.0496         91.3069      -0.00962961         147.683
0.552                  -0.733673        -148.802           -47.89         89.8396         -47.8895         89.8346       -0.0097036         147.612
0.553                  -0.751715        -149.359         -47.7304         88.3652           -47.73         88.3606       -0.0097829         147.541
0.554                  -0.770101        -149.919         -47.5713         86.8891         -47.5709         86.8847      -0.00986757          147.47
0.555                  -0.788839        -150.482         -47.4126         85.4113         -47.4123         85.4071       -0.0099577         147.399
0.556                  -0.807942        -151.048         -47.2545         83.9317         -47.2541         83.9277       -0.0100533         147.328
0.557                  -0.827422        -151.617         -47.0967         82.4503         -47.0964         82.4466       -0.0101544         147.257
0.558                   -0.84729         -152.19         -46.9395         80.9671         -46.9392         80.9637       -0.0102611         147.185
0.559                  -0.867561        -152.766         -46.7826         79.4822         -46.7824          79.479       -0.0103732         147.114
0.56                   -0.888247        -153.346         -46.6263         77.9955          -46.626         77.9926       -0.0104908         147.042
0.561                  -0.909364        -153.929         -46.4703          76.507         -46.4701         76.5043       -0.0106138          146.97
0.562                  -0.930926        -154.515         -46.3148         75.0167         -46.3146         75.0143       -0.0107422         146.898
0.563                   -0.95295        -155.105         -46.1598         73.5246         -46.1596         73.5224       -0.0108758         146.826
0.564                  -0.975453        -155.699         -46.0051         72.0307          -46.005         72.0287       -0.0110147         146.754
0.565                  -0.998452        -156.296         -45.8509         70.5349         -45.8508         70.5331       -0.0111587         146.681
0.566                   -1.02197        -156.897         -45.6971         69.0372          -45.697         69.0356       -0.0113077         146.609
0.567                   -1.04601        -157.502         -45.5436         67.5376         -45.5436         67.5363       -0.0114616         146.536
0.568                   -1.07062        -158.111         -45.3906         66.0361         -45.3906          66.035       -0.0116204         146.463
0.569                   -1.09579        -158.723          -45.238         64.5326          -45.238         64.5317       -0.0117838         146.391
0.57                    -1.12156        -159.339         -45.0858         63.0272         -45.0858         63.0264       -0.0119519         146.318
0.571                   -1.14795         -159.96          -44.934         61.5196          -44.934          61.519       -0.0121245         146.244
0.572                   -1.17499        -160.584         -44.7826           60.01         -44.7826         60.0096       -0.0123014         146.171
0.573                   -1.20268        -161.212         -44.6316         58.4983         -44.6316         58.4981       -0.0124826         146.098
0.574                   -1.23107        -161.844          -44.481         56.9845          -44.481         56.9843        -0.012668         146.024
0.575                   -1.26017         -162.48         -44.3307         55.4684         -44.3307         55.4684       -0.0128574         145.951
0.576                   -1.29001        -163.119         -44.1808         53.9501         -44.1809         53.9503       -0.0130507         145.877
0.577                   -1.32062        -163.763         -44.0314         52.4295         -44.0314         52.4298       -0.0132479         145.803
0.578                   -1.35203        -164.411         -43.8823         50.9066         -43.8823          50.907       -0.0134488         145.729
0.579                   -1.38426        -165.062         -43.7336         49.3813         -43.7336         49.3818       -0.0136534         145.655
0.58                    -1.41734        -165.717         -43.5853         47.8536         -43.5853         47.8541       -0.0138615          145.58
0.581                    -1.4513        -166.376         -43.4373         46.3234         -43.4374          46.324       -0.0140731         145.506
0.582                   -1.48616        -167.039         -43.2898         44.7906         -43.2898         44.7914        -0.014288         145.431
0.583                   -1.52197        -167.706         -43.1427         43.2553         -43.1427         43.2562       -0.0145062         145.356
0.584                   -1.55874        -168.376         -42.9959         41.7174         -42.9959         41.7183       -0.0147276         145.281
0.585                   -1.59652        -169.049         -42.8496         40.1769         -42.8496         40.1778       -0.0149521         145.206
0.586                   -1.63532        -169.726         -42.7036         38.6336         -42.7037         38.6346       -0.0151797         145.131
0.587                   -1.67518        -170.406         -42.5581         37.0876         -42.5582         37.0886       -0.0154102         145.056
0.588                   -1.71612         -171.09          -42.413         35.5388         -42.4131         35.5399       -0.0156437          144.98
0.589                   -1.75819        -171.776         -42.2684         33.9871         -42.2684         33.9883         -0.01588         144.904
0.59                     -1.8014        -172.466         -42.1241         32.4327         -42.1242         32.4338       -0.0161192         144.829
0.591                   -1.84579        -173.158         -41.9803         30.8753         -41.9804         30.8765        -0.016361         144.753
0.592                   -1.89138        -173.852          -41.837          29.315          -41.837         29.3162       -0.0166056         144.676
0.593                   -1.93821        -174.549         -41.6941         27.7517         -41.6941          27.753       -0.0168528           144.6
0.594                   -1.98629        -175.249         -41.5517         26.1855         -41.5517         26.1867       -0.0171027         144.523
0.595                   -2.03565         -175.95         -41.4098         24.6163         -41.4098         24.6175       -0.0173551         144.447
0.596                   -2.08632        -176.653         -41.2683          23.044         -41.2684         23.0453       -0.0176101          144.37
0.597                   -2.13833        -177.357         -41.1274         21.4688         -41.1274           21.47       -0.0178675         144.293
0.598                   -2.19168        -178.063          -40.987         19.8905          -40.987         19.8917       -0.0181275         144.216
0.599                   -2.24641        -178.769         -40.8471         18.3092         -40.8471         18.3104         -0.01839         144.138
0.6                     -2.30253        -179.477         -40.7077         16.7249         -40.7077          16.726       -0.0186549         144.061
0.601                   -2.36005         179.815         -40.5689         15.1375         -40.5689         15.1387       -0.0189222         143.983
0.602                   -2.41899         179.107         -40.4306         13.5471         -40.4306         13.5483        -0.019192         143.905
0.603                   -2.47936         178.399         -40.2929         11.9538         -40.2929         11.9549       -0.0194641         143.827
0.604                   -2.54117         177.692         -40.1558         10.3575         -40.1558         10.3586       -0.0197387         143.749
0.605                   -2.60443         176.985         -40.0193         8.75824         -40.0193         8.75932       -0.0200158          143.67
0.606                   -2.66914         176.279         -39.8834         7.15612         -39.8834         7.15717       -0.0202952         143.591
0.607                   -2.73531         175.575         -39.7482         5.55115         -39.7482         5.55217       -0.0205771         143.512
0.608                   -2.80292         174.873         -39.6136         3.94339         -39.6136         3.94438       -0.0208614         143.433
0.609                   -2.87198         174.172         -39.4796         2.33289         -39.4796         2.33385       -0.0211481         143.354
0.61                    -2.94247         173.474         -39.3463        0.719715         -39.3463        0.720641       -0.0214373         143.274
0.611                   -3.01439         172.779         -39.2136        -0.89606         -39.2136       -0.895168       -0.0217291         143.195
0.612                   -3.08773         172.086         -39.0817        -2.51436         -39.0817         -2.5135       -0.0220233         143.115
0.613                   -3.16246         171.397         -38.9505        -4.13511         -38.9505        -4.13428       -0.0223201         143.035
0.614                   -3.23856         170.712         -38.8199         -5.7582         -38.8199        -5.75742       -0.0226194         142.954
0.615                   -3.31602         170.031         -38.6901        -7.38356         -38.6901        -7.38281       -0.0229214         142.874
0.616                    -3.3948         169.354         -38.5611        -9.01107          -38.561        -9.01035       -0.0232261         142.793
0.617                   -3.47488         168.682         -38.4327        -10.6406         -38.4327        -10.6399       -0.0235334         142.712
0.618                   -3.55621         168.015         -38.3051        -12.2721         -38.3051        -12.2715       -0.0238435          142.63
0.619                   -3.63878         167.353         -38.1783        -13.9054         -38.1783        -13.9048       -0.0241564         142.549
0.62                    -3.72254         166.696         -38.0522        -15.5404         -38.0522        -15.5399       -0.0244721         142.467
0.621                   -3.80744         166.045         -37.9269         -17.177         -37.9269        -17.1765       -0.0247908         142.385
0.622                   -3.89345           165.4         -37.8024         -18.815         -37.8024        -18.8145       -0.0251124         142.302
0.623                   -3.98051         164.761         -37.6787        -20.4543         -37.6786        -20.4539       -0.0254372          142.22
0.624                   -4.06859         164.129         -37.5557        -22.0948         -37.5557        -22.0943        -0.025765         142.137
0.625                   -4.15762         163.503         -37.4335        -23.7363         -37.4335        -23.7359       -0.0260961         142.054
0.626                   -4.24757         162.884         -37.3121        -25.3786         -37.3121        -25.3782       -0.0264305         141.971
0.627                   -4.33837         162.271         -37.1914        -27.0217         -37.1914        -27.0213       -0.0267682         141.887
0.628                   -4.42997         161.666         -37.0716        -28.6653         -37.0716         -28.665       -0.0271095         141.803
0.629                   -4.52232         161.067         -36.9525        -30.3093         -36.9525        -30.3091       -0.0274544         141.719
0.63                    -4.61536         160.476         -36.8342        -31.9536         -36.8342        -31.9534       -0.0278029         141.634
0.631                   -4.70903         159.892         -36.7166        -33.5981         -36.7166        -33.5979       -0.0281553          141.55
0.632                   -4.80327         159.314         -36.5998        -35.2425         -36.5998        -35.2423       -0.0285116         141.465
0.633                   -4.89804         158.744         -36.4838        -36.8867         -36.4837        -36.8866       -0.0288721         141.379
0.634                   -4.99326         158.181         -36.3684        -38.5306         -36.3684        -38.5305       -0.0292367         141.294
0.635                    -5.0889         157.625         -36.2538         -40.174         -36.2538        -40.1739       -0.0296057         141.208
0.636                   -5.18488         157.075         -36.1399        -41.8168         -36.1399        -41.8167       -0.0299791         141.122
0.637                   -5.28116         156.533         -36.0267        -43.4589         -36.0267        -43.4588       -0.0303573         141.035
0.638                   -5.37768         155.997         -35.9142           -45.1         -35.9141           -45.1       -0.0307403         140.948
0.639                   -5.47439         155.467         -35.8023        -46.7402         -35.8023        -46.7402       -0.0311283         140.861
0.64                    -5.57125         154.944         -35.6911        -48.3792          -35.691        -48.3792       -0.0315215         140.773
0.641                    -5.6682         154.427         -35.5805        -50.0169         -35.5804         -50.017       -0.0319201         140.685
0.642                    -5.7652         153.915         -35.4704        -51.6533         -35.4704        -51.6534       -0.0323243         140.597
0.643                    -5.8622         153.409          -35.361        -53.2882          -35.361        -53.2883       -0.0327343         140.509
0.644                   -5.95916         152.909         -35.2521        -54.9216         -35.2521        -54.9217       -0.0331503          140.42
0.645                   -6.05605         152.413         -35.1438        -56.5533         -35.1437        -56.5534       -0.0335727         140.331
0.646                   -6.15283         151.922         -35.0359        -58.1832         -35.0359        -58.1834       -0.0340016         140.241
0.647                   -6.24947         151.436         -34.9286        -59.8114         -34.9285        -59.8116       -0.0344373         140.151
0.648                   -6.34594         150.953         -34.8217        -61.4376         -34.8216        -61.4379         -0.03488         140.061
0.649                   -6.44221         150.474         -34.7152         -63.062         -34.7152        -63.0622       -0.0353301          139.97
0.65                    -6.53826         149.999         -34.6091        -64.6844         -34.6091        -64.6846       -0.0357879         139.879
0.651                   -6.63408         149.526         -34.5034        -66.3048         -34.5034         -66.305       -0.0362537         139.787
0.652                   -6.72963         149.056         -34.3981        -67.9231          -34.398        -67.9234       -0.0367278         139.695
0.653                   -6.82493         148.588          -34.293        -69.5395          -34.293        -69.5398       -0.0372105         139.603
0.654                   -6.91994         148.122         -34.1882        -71.1538         -34.1882        -71.1541       -0.0377023          139.51
0.655                   -7.01468         147.657         -34.0837         -72.766         -34.0837        -72.7663       -0.0382034         139.417
0.656                   -7.10914         147.193         -33.9795        -74.3763         -33.9794        -74.3766       -0.0387144         139.324
0.657                   -7.20333         146.729         -33.8754        -75.9846         -33.8754        -75.9849       -0.0392356          139.23
0.658                   -7.29725         146.266         -33.7715        -77.5909         -33.7715        -77.5912       -0.0397674         139.135
0.659                    -7.3909         145.802         -33.6677        -79.1954         -33.6677        -79.1957       -0.0403103          139.04
0.66                    -7.48432         145.337         -33.5641         -80.798         -33.5641        -80.7983       -0.0408648         138.945
0.661                   -7.57751         144.871         -33.4605        -82.3989         -33.4605        -82.3992       -0.0414313         138.849
0.662                    -7.6705         144.404          -33.357        -83.9981          -33.357        -83.9984       -0.0420104         138.753
0.663                   -7.76331         143.934         -33.2536        -85.5958         -33.2535         -85.596       -0.0426025         138.656
0.664                   -7.85599         143.462         -33.1501        -87.1919         -33.1501        -87.1922       -0.0432083         138.559
0.665                   -7.94855         142.987         -33.0466        -88.7868         -33.0466         -88.787       -0.0438283         138.461
0.666                   -8.04104         142.508         -32.9431        -90.3804         -32.9431        -90.3806       -0.0444631         138.363
0.667                    -8.1335         142.026         -32.8395        -91.9729         -32.8395        -91.9731       -0.0451134         138.265
0.668                   -8.22599          141.54         -32.7359        -93.5644         -32.7358        -93.5646       -0.0457796         138.166
0.669                   -8.31854         141.049         -32.6321        -95.1551         -32.6321        -95.1553       -0.0464626         138.066
0.67                    -8.41122         140.553         -32.5282        -96.7452         -32.5282        -96.7454       -0.0471629         137.966
0.671                   -8.50408         140.051         -32.4241        -98.3348         -32.4241        -98.3349       -0.0478814         137.865
0.672                    -8.5972         139.544         -32.3199        -99.9241         -32.3199        -99.9242       -0.0486186         137.764
0.673                   -8.69062          139.03         -32.2156        -101.513         -32.2156        -101.513       -0.0493754         137.662
0.674                   -8.78444         138.511          -32.111        -103.103          -32.111        -103.103       -0.0501526          137.56
0.675                   -8.87872         137.984         -32.0062        -104.692         -32.0062        -104.692       -0.0509508         137.457
0.676                   -8.97355          137.45         -31.9012        -106.282         -31.9012        -106.282        -0.051771         137.353
0.677                   -9.06901         136.908          -31.796        -107.873          -31.796        -107.873       -0.0526139         137.249
0.678                    -9.1652         136.359         -31.6906        -109.464         -31.6906        -109.464       -0.0534804         137.145
0.679                   -9.26221         135.801          -31.585        -111.057         -31.5849        -111.056       -0.0543714         137.039
0.68                    -9.36013         135.235         -31.4791        -112.651         -31.4791         -112.65       -0.0552877         136.934
0.681                   -9.45909          134.66         -31.3729        -114.246         -31.3729        -114.246       -0.0562303         136.827
0.682                   -9.55918         134.076         -31.2666        -115.843         -31.2665        -115.843          -0.0572          136.72
0.683                   -9.66053         133.482           -31.16        -117.442         -31.1599        -117.442       -0.0581978         136.613
0.684                   -9.76326         132.879         -31.0531        -119.043         -31.0531        -119.043       -0.0592246         136.504
0.685                   -9.86751         132.267         -30.9461        -120.647         -30.9461        -120.646       -0.0602813         136.395
0.686                    -9.9734         131.644         -30.8388        -122.253         -30.8388        -122.252       -0.0613689         136.286
0.687                   -10.0811         131.012         -30.7314        -123.862         -30.7313        -123.861       -0.0624884         136.176
0.688                   -10.1907         130.369         -30.6237        -125.474         -30.6237        -125.473       -0.0636406         136.065
0.689                   -10.3024         129.715         -30.5159        -127.089         -30.5158        -127.089       -0.0648266         135.954
0.69                    -10.4164         129.052         -30.4079        -128.708         -30.4079        -128.707       -0.0660473         135.841
0.691                   -10.5328         128.377         -30.2998         -130.33         -30.2997         -130.33       -0.0673035         135.729
0.692                   -10.6519         127.693         -30.1915        -131.957         -30.1915        -131.956       -0.0685963         135.615
0.693                   -10.7738         126.997         -30.0832        -133.587         -30.0832        -133.586       -0.0699265         135.501
0.694                   -10.8986         126.292         -29.9748        -135.221         -29.9748        -135.221        -0.071295         135.386
0.695                   -11.0268         125.576         -29.8664         -136.86         -29.8663        -136.859       -0.0727027         135.271
0.696                   -11.1583          124.85          -29.758        -138.503         -29.7579        -138.503       -0.0741503         135.154
0.697                   -11.2936         124.113         -29.6495        -140.151         -29.6495        -140.151       -0.0756388         135.038