! TOUCHSTONE file generated by CST MICROWAVE STUDIO
! Date and time: Fri Oct  2 19:10:22 2020
! Project name: Scenario_1_Free_Space_out_of_line.cst
! Parameters = {Lambda=346.42; Step_1=17.321; dy1=87.525; dx1=866; L_HA=400; MT=2.54; Rad_Dielectric=30; Rad_Lower=7.3; Rad_Upper=30; a_HA=580; a_WG=246; b_HA=500; b_WG=121; c_HA=0; c_WG=187; d_feed=85; h_feed=15; h_lower=18; h_upper=40}
! Header version: 2018
! Port assignment regex: !\s*Touchstone port\s*([0-9]+)\s*=\s*(CST MWS port|CST DS port)\s*([0-9]+|Zmin|Zmax)\s*\(\"(.*)\"\)(\s*mode\s*([0-9]+))?.*
! Touchstone port assignment:
! Touchstone port 1 = CST MWS port 1 ("")
! Touchstone port 2 = CST MWS port 2 ("")
# GHz S DB R 50
0.5                    -0.147524        -122.344         -63.3389         142.386         -63.3389         142.386      -0.00656328         151.122
0.501                  -0.153114        -122.792         -62.8581         140.641         -62.8614         140.659      -0.00662749         151.057
0.502                  -0.158908        -123.243         -62.4068         138.808          -62.413         138.842      -0.00669248         150.991
0.503                  -0.164907        -123.695         -61.9827           136.9         -61.9911         136.948      -0.00675826         150.926
0.504                  -0.171114        -124.149         -61.5836         134.927         -61.5938         134.989      -0.00682483          150.86
0.505                   -0.17753        -124.604         -61.2076           132.9         -61.2192         132.973      -0.00689219         150.795
0.506                  -0.184159        -125.062         -60.8529         130.825         -60.8657         130.909      -0.00696035         150.729
0.507                  -0.191003        -125.521         -60.5181          128.71         -60.5317         128.802      -0.00702933         150.663
0.508                  -0.198063        -125.982         -60.2016         126.559         -60.2158         126.659      -0.00709911         150.597
0.509                  -0.205343        -126.445         -59.9023         124.378         -59.9169         124.484      -0.00716971         150.531
0.51                   -0.212845        -126.909         -59.6189         122.171         -59.6338         122.283      -0.00724114         150.465
0.511                  -0.220571        -127.376         -59.3504         119.941         -59.3654         120.057       -0.0073134         150.399
0.512                  -0.228524        -127.844         -59.0957         117.692         -59.1107         117.812       -0.0073865         150.333
0.513                  -0.236706        -128.314          -58.854         115.427         -58.8689         115.549      -0.00746043         150.267
0.514                  -0.245119        -128.786         -58.6244         113.147         -58.6391         113.271      -0.00753522         150.201
0.515                  -0.253767         -129.26          -58.406         110.856         -58.4206         110.981      -0.00761087         150.134
0.516                  -0.262652        -129.736         -58.1982         108.554         -58.2124         108.679      -0.00768738         150.068
0.517                  -0.271776        -130.213         -58.0003         106.244         -58.0141         106.369      -0.00776476         150.001
0.518                  -0.281142        -130.692         -57.8114         103.927         -57.8249         104.051      -0.00784302         149.934
0.519                  -0.290753        -131.174         -57.6311         101.603         -57.6442         101.726      -0.00792217         149.868
0.52                   -0.300611        -131.657         -57.4588         99.2753         -57.4714         99.3962       -0.0080022         149.801
0.521                  -0.310719        -132.142         -57.2938          96.943          -57.306         97.0618      -0.00808314         149.734
0.522                  -0.321079        -132.629         -57.1357         94.6075         -57.1474         94.7236      -0.00816498         149.667
0.523                  -0.331695        -133.118          -56.984         92.2692         -56.9952         92.3825      -0.00824774           149.6
0.524                  -0.342569        -133.609         -56.8381         89.9288         -56.8489         90.0388      -0.00833142         149.533
0.525                  -0.353703        -134.101         -56.6977         87.5865         -56.7079         87.6931      -0.00841604         149.466
0.526                  -0.365102        -134.596         -56.5622         85.2429          -56.572         85.3457      -0.00850159         149.398
0.527                  -0.376766        -135.093         -56.4314          82.898         -56.4407         82.9969       -0.0085881         149.331
0.528                  -0.388701        -135.591         -56.3048         80.5521         -56.3136          80.647      -0.00867556         149.263
0.529                  -0.400907        -136.092          -56.182         78.2054         -56.1903         78.2961      -0.00876398         149.196
0.53                   -0.413389        -136.594         -56.0627         75.8578         -56.0706         75.9443      -0.00885339         149.128
0.531                  -0.426149        -137.099         -55.9466         73.5096          -55.954         73.5917      -0.00894377          149.06
0.532                   -0.43919        -137.605         -55.8333         71.1606         -55.8403         71.2383      -0.00903515         148.992
0.533                  -0.452515        -138.114         -55.7226         68.8109         -55.7291         68.8841      -0.00912754         148.924
0.534                  -0.466128        -138.624         -55.6142         66.4604         -55.6203         66.5292      -0.00922094         148.856
0.535                  -0.480031        -139.137         -55.5078         64.1091         -55.5134         64.1734      -0.00931536         148.788
0.536                  -0.494228        -139.651         -55.4031         61.7568         -55.4083         61.8167      -0.00941081          148.72
0.537                  -0.508721        -140.168            -55.3         59.4036         -55.3047         59.4591      -0.00950731         148.652
0.538                  -0.523514        -140.687         -55.1981         57.0493         -55.2024         57.1005      -0.00960487         148.583
0.539                  -0.538611        -141.207         -55.0972         54.6938         -55.1012         54.7407      -0.00970349         148.515
0.54                   -0.554014         -141.73         -54.9973          52.337         -55.0009         52.3797      -0.00980319         148.446
0.541                  -0.569727        -142.255          -54.898         49.9789         -54.9012         50.0175      -0.00990397         148.377
0.542                  -0.585753        -142.782         -54.7991         47.6193         -54.8019         47.6539       -0.0100059         148.308
0.543                  -0.602097        -143.311         -54.7006         45.2581          -54.703         45.2888       -0.0101089         148.239
0.544                   -0.61876        -143.842         -54.6022         42.8954         -54.6043         42.9222        -0.010213          148.17
0.545                  -0.635747        -144.375         -54.5038         40.5309         -54.5055         40.5541       -0.0103182         148.101
0.546                  -0.653062         -144.91         -54.4052         38.1647         -54.4066         38.1843       -0.0104247         148.032
0.547                  -0.670708        -145.448         -54.3064         35.7966         -54.3074         35.8128       -0.0105322         147.962
0.548                  -0.688689        -145.988         -54.2071         33.4267         -54.2078         33.4396        -0.010641         147.893
0.549                  -0.707009        -146.529         -54.1072         31.0548         -54.1076         31.0646       -0.0107509         147.823
0.55                   -0.725671        -147.073         -54.0068          28.681         -54.0068         28.6878        -0.010862         147.753
0.551                   -0.74468         -147.62         -53.9055         26.3053         -53.9053         26.3092       -0.0109744         147.684
0.552                  -0.764039        -148.168         -53.8034         23.9276         -53.8029         23.9287        -0.011088         147.614
0.553                  -0.783753        -148.719         -53.7004          21.548         -53.6996         21.5465       -0.0112028         147.544
0.554                  -0.803826        -149.272         -53.5964         19.1664         -53.5953         19.1625       -0.0113189         147.473
0.555                  -0.824261        -149.827         -53.4913         16.7829         -53.4899         16.7766       -0.0114363         147.403
0.556                  -0.845064        -150.384          -53.385         14.3974         -53.3834          14.389       -0.0115549         147.333
0.557                  -0.866239        -150.944         -53.2776         12.0101         -53.2757         11.9997       -0.0116749         147.262
0.558                   -0.88779        -151.506         -53.1688         9.62096         -53.1667          9.6087       -0.0117962         147.192
0.559                  -0.909722         -152.07         -53.0588         7.23001         -53.0565         7.21603       -0.0119188         147.121
0.56                    -0.93204        -152.637         -52.9475         4.83732         -52.9449         4.82174       -0.0120428          147.05
0.561                  -0.954748        -153.206         -52.8348         2.44292          -52.832         2.42588       -0.0121682         146.979
0.562                  -0.977851        -153.778         -52.7207       0.0468723         -52.7177       0.0285123       -0.0122949         146.908
0.563                   -1.00135        -154.351         -52.6052        -2.35077          -52.602        -2.37033       -0.0124231         146.836
0.564                   -1.02526        -154.928         -52.4883        -4.74995          -52.485        -4.77058       -0.0125527         146.765
0.565                   -1.04958        -155.506         -52.3699        -7.15062         -52.3664         -7.1722       -0.0126837         146.693
0.566                   -1.07432        -156.087         -52.2501        -9.55273         -52.2465        -9.57514       -0.0128162         146.622
0.567                   -1.09948        -156.671         -52.1289        -11.9562         -52.1252        -11.9794       -0.0129502          146.55
0.568                   -1.12507        -157.257         -52.0063         -14.361         -52.0025        -14.3848       -0.0130857         146.478
0.569                   -1.15109        -157.846         -51.8823        -16.7672         -51.8783        -16.7914       -0.0132227         146.406
0.57                    -1.17755        -158.437         -51.7569        -19.1745         -51.7528        -19.1992       -0.0133613         146.334
0.571                   -1.20445        -159.031         -51.6302        -21.5831          -51.626        -21.6081       -0.0135014         146.261
0.572                   -1.23181        -159.627         -51.5021        -23.9929         -51.4978        -24.0181       -0.0136432         146.189
0.573                   -1.25963        -160.226         -51.3726        -26.4038         -51.3683        -26.4291       -0.0137865         146.116
0.574                   -1.28791        -160.827          -51.242        -28.8158         -51.2376        -28.8412       -0.0139315         146.044
0.575                   -1.31667        -161.432           -51.11        -31.2289         -51.1056        -31.2543       -0.0140782         145.971
0.576                    -1.3459        -162.038         -50.9769        -33.6432         -50.9725        -33.6685       -0.0142265         145.898
0.577                   -1.37563        -162.648         -50.8427        -36.0585         -50.8382        -36.0837       -0.0143765         145.825
0.578                   -1.40585         -163.26         -50.7073         -38.475         -50.7028        -38.4999       -0.0145283         145.751
0.579                   -1.43658        -163.876         -50.5708        -40.8925         -50.5664        -40.9171       -0.0146819         145.678
0.58                    -1.46781        -164.493         -50.4334        -43.3111         -50.4289        -43.3354       -0.0148372         145.604
0.581                   -1.49957        -165.114          -50.295        -45.7309         -50.2905        -45.7548       -0.0149943          145.53
0.582                   -1.53186        -165.738         -50.1557        -48.1518         -50.1513        -48.1753       -0.0151533         145.456
0.583                   -1.56469        -166.364         -50.0156        -50.5738         -50.0112        -50.5969       -0.0153141         145.382
0.584                   -1.59807        -166.994         -49.8746        -52.9971         -49.8703        -53.0196       -0.0154769         145.308
0.585                     -1.632        -167.626          -49.733        -55.4215         -49.7287        -55.4435       -0.0156415         145.234
0.586                   -1.66651        -168.262         -49.5907        -57.8472         -49.5865        -57.8687       -0.0158082         145.159
0.587                    -1.7016          -168.9         -49.4478        -60.2742         -49.4436        -60.2951       -0.0159768         145.084
0.588                   -1.73728        -169.542         -49.3043        -62.7025         -49.3003        -62.7228       -0.0161474         145.009
0.589                   -1.77357        -170.186         -49.1604        -65.1322         -49.1564        -65.1518       -0.0163201         144.934
0.59                    -1.81048        -170.834         -49.0161        -67.5632         -49.0122        -67.5822       -0.0164948         144.859
0.591                   -1.84801        -171.485         -48.8714        -69.9957         -48.8676         -70.014       -0.0166717         144.784
0.592                   -1.88619        -172.139         -48.7265        -72.4296         -48.7228        -72.4472       -0.0168507         144.708
0.593                   -1.92503        -172.797         -48.5813         -74.865         -48.5778        -74.8819       -0.0170319         144.632
0.594                   -1.96454        -173.458          -48.436        -77.3019         -48.4326        -77.3181       -0.0172153         144.556
0.595                   -2.00474        -174.122         -48.2907        -79.7404         -48.2873        -79.7558        -0.017401          144.48
0.596                   -2.04564        -174.789         -48.1453        -82.1804          -48.142        -82.1951        -0.017589         144.404
0.597                   -2.08727         -175.46         -47.9999        -84.6219         -47.9968        -84.6359       -0.0177793         144.328
0.598                   -2.12964        -176.134         -47.8547        -87.0651         -47.8517        -87.0784       -0.0179719         144.251
0.599                   -2.17276        -176.812         -47.7096        -89.5098         -47.7067        -89.5224        -0.018167         144.174
0.6                     -2.21667        -177.494         -47.5648        -91.9561          -47.562        -91.9679       -0.0183645         144.097
0.601                   -2.26138        -178.179         -47.4202        -94.4039         -47.4176        -94.4151       -0.0185645          144.02
0.602                    -2.3069        -178.867          -47.276        -96.8533         -47.2736        -96.8638       -0.0187671         143.942
0.603                   -2.35328        -179.559         -47.1323        -99.3042         -47.1299         -99.314       -0.0189722         143.865
0.604                   -2.40052         179.745         -46.9889        -101.757         -46.9867        -101.766       -0.0191799         143.787
0.605                   -2.44865         179.045         -46.8461         -104.21         -46.8441        -104.219       -0.0193903         143.709
0.606                   -2.49771         178.342         -46.7039        -106.666          -46.702        -106.673       -0.0196034         143.631
0.607                   -2.54771         177.635         -46.5623        -109.122         -46.5605        -109.129       -0.0198193         143.552
0.608                   -2.59869         176.924         -46.4214         -111.58         -46.4197        -111.586       -0.0200379         143.474
0.609                   -2.65068         176.209         -46.2812        -114.039         -46.2796        -114.045       -0.0202594         143.395
0.61                    -2.70371          175.49         -46.1417        -116.499         -46.1403        -116.504       -0.0204838         143.316
0.611                   -2.75782         174.768         -46.0031         -118.96         -46.0017        -118.965       -0.0207112         143.237
0.612                   -2.81303         174.042         -45.8653        -121.422          -45.864        -121.426       -0.0209415         143.157
0.613                   -2.86939         173.312         -45.7283        -123.885         -45.7272        -123.888       -0.0211749         143.078
0.614                   -2.92694         172.578         -45.5923        -126.348         -45.5913        -126.351       -0.0214114         142.998
0.615                   -2.98571          171.84         -45.4572        -128.812         -45.4564        -128.814        -0.021651         142.917
0.616                   -3.04576         171.099         -45.3231        -131.276         -45.3223        -131.278       -0.0218938         142.837
0.617                   -3.10712         170.354           -45.19        -133.741         -45.1893        -133.742       -0.0221398         142.756
0.618                   -3.16983         169.605         -45.0579        -136.206         -45.0573        -136.206       -0.0223891         142.676
0.619                   -3.23396         168.853         -44.9269         -138.67         -44.9264        -138.671       -0.0226418         142.595
0.62                    -3.29955         168.097         -44.7969        -141.135         -44.7965        -141.135       -0.0228978         142.513
0.621                   -3.36664         167.338          -44.668        -143.599         -44.6676        -143.598       -0.0231573         142.432
0.622                    -3.4353         166.575         -44.5401        -146.062         -44.5399        -146.061       -0.0234203          142.35
0.623                   -3.50558          165.81         -44.4134        -148.525         -44.4132        -148.524       -0.0236867         142.268
0.624                   -3.57754         165.041         -44.2877        -150.987         -44.2876        -150.986       -0.0239567         142.185
0.625                   -3.65124          164.27         -44.1631        -153.448         -44.1631        -153.446       -0.0242303         142.103
0.626                   -3.72672         163.497         -44.0397        -155.908         -44.0397        -155.906       -0.0245075          142.02
0.627                   -3.80407         162.721         -43.9173        -158.367         -43.9174        -158.364       -0.0247882         141.937
0.628                   -3.88332         161.944          -43.796        -160.824         -43.7961        -160.821       -0.0250726         141.853
0.629                   -3.96455         161.165         -43.6758        -163.279          -43.676        -163.276       -0.0253605          141.77
0.63                    -4.04782         160.385         -43.5566        -165.733         -43.5568         -165.73        -0.025652         141.686
0.631                   -4.13318         159.604         -43.4385        -168.185         -43.4388        -168.181       -0.0259469         141.602
0.632                   -4.22069         158.823         -43.3214        -170.634         -43.3217        -170.631       -0.0262452         141.517
0.633                   -4.31041         158.043         -43.2054        -173.082         -43.2057        -173.078       -0.0265467         141.432
0.634                   -4.40237         157.263         -43.0903        -175.527         -43.0907        -175.523       -0.0268511         141.347
0.635                   -4.49664         156.486         -42.9762        -177.969         -42.9766        -177.965       -0.0271582         141.262
0.636                   -4.59326          155.71          -42.863         179.591         -42.8635         179.595       -0.0274676         141.176
0.637                   -4.69224         154.937         -42.7508         177.153         -42.7512         177.158       -0.0277785          141.09
0.638                   -4.79363         154.168         -42.6394         174.719         -42.6399         174.723       -0.0280902         141.003
0.639                   -4.89743         153.404          -42.529         172.287         -42.5294         172.291       -0.0284013         140.917
0.64                    -5.00366         152.645         -42.4193         169.858         -42.4198         169.863       -0.0287101         140.829
0.641                    -5.1123         151.893         -42.3104         167.433         -42.3109         167.437       -0.0290139         140.742
0.642                   -5.22335         151.148         -42.2023          165.01         -42.2028         165.014       -0.0293084         140.654
0.643                   -5.33675         150.411         -42.0949          162.59         -42.0954         162.595       -0.0295868         140.566
0.644                   -5.45248         149.683         -41.9882         160.174         -41.9887         160.178       -0.0298377         140.477
0.645                   -5.57045         148.965         -41.8822         157.761         -41.8827         157.765         -0.03004         140.387
0.646                    -5.6906         148.258         -41.7768         155.351         -41.7772         155.355       -0.0301516         140.297
0.647                   -5.81282         147.563         -41.6719         152.944         -41.6724         152.948       -0.0300774         140.206
0.648                     -5.937         146.881         -41.5676          150.54         -41.5681         150.544       -0.0295624         140.114
0.649                   -6.06301         146.211         -41.4638         148.139         -41.4643         148.143       -0.0277996         140.023
0.65                    -6.19071         145.556         -41.3606         145.742          -41.361         145.746       -0.0240793         139.959
0.651                   -6.31993         144.916         -41.2577         143.347         -41.2581          143.35       -0.0305724         139.905
0.652                   -6.45051          144.29         -41.1551         140.955         -41.1555         140.959       -0.0341316         139.797
0.653                   -6.58228         143.679         -41.0529         138.567         -41.0533          138.57        -0.035024         139.695
0.654                   -6.71505         143.084         -40.9511         136.181         -40.9514         136.185       -0.0355048         139.599
0.655                   -6.84863         142.503         -40.8495         133.798         -40.8498         133.802       -0.0359205         139.503
0.656                   -6.98286         141.938         -40.7482         131.418         -40.7485         131.421       -0.0363357         139.409
0.657                   -7.11754         141.387         -40.6471         129.041         -40.6474         129.044       -0.0367645         139.315
0.658                   -7.25253          140.85         -40.5461         126.666         -40.5464         126.669       -0.0372096         139.221
0.659                   -7.38766         140.326         -40.4454         124.293         -40.4456         124.296       -0.0376707         139.126
0.66                     -7.5228         139.815         -40.3447         121.923          -40.345         121.925       -0.0381473         139.032
0.661                   -7.65785         139.315         -40.2441         119.554         -40.2444         119.557       -0.0386387         138.937
0.662                    -7.7927         138.826         -40.1436         117.188         -40.1438          117.19       -0.0391441         138.842
0.663                   -7.92731         138.346         -40.0432         114.824         -40.0433         114.826       -0.0396634         138.746
0.664                   -8.06162         137.874         -39.9427         112.461         -39.9428         112.463       -0.0401963          138.65
0.665                   -8.19564         137.409         -39.8422           110.1         -39.8423         110.101       -0.0407426         138.554
0.666                   -8.32938         136.949         -39.7417          107.74         -39.7418         107.741       -0.0413023         138.457
0.667                    -8.4629         136.494          -39.641         105.381         -39.6411         105.382       -0.0418755          138.36
0.668                   -8.59625         136.043         -39.5404         103.024         -39.5404         103.025       -0.0424622         138.262
0.669                   -8.72954         135.594         -39.4396         100.667         -39.4396         100.668       -0.0430628         138.164
0.67                    -8.86289         135.146         -39.3387          98.311         -39.3387         98.3116       -0.0436772         138.065
0.671                   -8.99644         134.698         -39.2376         95.9555         -39.2376          95.956       -0.0443059         137.966
0.672                   -9.13034         134.251         -39.1364         93.6005         -39.1364         93.6008       -0.0449491         137.867
0.673                   -9.26477         133.803         -39.0351         91.2456          -39.035         91.2458       -0.0456071         137.767
0.674                   -9.39992         133.353         -38.9335         88.8907         -38.9335         88.8908       -0.0462802         137.666
0.675                   -9.53597         132.902         -38.8318         86.5357         -38.8318         86.5356       -0.0469688         137.565
0.676                   -9.67313          132.45         -38.7299         84.1804         -38.7299         84.1801       -0.0476732         137.464
0.677                   -9.81161         131.996         -38.6279         81.8245         -38.6278         81.8241       -0.0483938         137.362
0.678                   -9.95161         131.541         -38.5256          79.468         -38.5255         79.4675       -0.0491312         137.259
0.679                   -10.0934         131.084         -38.4231         77.1106          -38.423           77.11       -0.0498855         137.156
0.68                     -10.237         130.627         -38.3204         74.7522         -38.3203         74.7514       -0.0506574         137.053
0.681                   -10.3829         130.169         -38.2175         72.3926         -38.2174         72.3918       -0.0514473         136.949
0.682                   -10.5311         129.712         -38.1145         70.0317         -38.1143         70.0307       -0.0522556         136.844
0.683                   -10.6819         129.257         -38.0112         67.6693          -38.011         67.6682       -0.0530828         136.738
0.684                   -10.8354         128.804         -37.9078         65.3052         -37.9076         65.3041       -0.0539295         136.633
0.685                    -10.992         128.355         -37.8041         62.9394          -37.804         62.9381       -0.0547961         136.526
0.686                   -11.1517          127.91         -37.7004         60.5715         -37.7002         60.5702       -0.0556831         136.419
0.687                   -11.3147         127.471         -37.5964         58.2017         -37.5962         58.2003       -0.0565911         136.311
0.688                   -11.4812          127.04         -37.4923         55.8296         -37.4921         55.8282       -0.0575206         136.203
0.689                   -11.6514         126.618         -37.3881         53.4552         -37.3879         53.4537       -0.0584722         136.094
0.69                    -11.8255         126.207         -37.2838         51.0784         -37.2836         51.0768       -0.0594464         135.985
0.691                   -12.0035          125.81         -37.1793          48.699         -37.1792         48.6974       -0.0604438         135.874
0.692                   -12.1857         125.427         -37.0748          46.317         -37.0746         46.3154        -0.061465         135.764
0.693                   -12.3722         125.061         -36.9702         43.9322         -36.9701         43.9306       -0.0625104         135.652
0.694                   -12.5631         124.715         -36.8656         41.5447         -36.8654         41.5431       -0.0635808          135.54
0.695                   -12.7585         124.391          -36.761         39.1543         -36.7608         39.1526       -0.0646766         135.427
0.696                   -12.9584         124.093         -36.6563         36.7609         -36.6561         36.7593       -0.0657985         135.313
0.697                    -13.163         123.822         -36.5517         34.3645         -36.5515         34.3629       -0.0669471         135.199