! TOUCHSTONE file generated by CST MICROWAVE STUDIO
! Date and time: Fri Oct  2 16:30:24 2020
! Project name: Scenario_1_Free_Space_out_of_line.cst
! Parameters = {Lambda=346.42; Step_1=17.321; dy1=52.843; dx1=346; L_HA=400; MT=2.54; Rad_Dielectric=30; Rad_Lower=7.3; Rad_Upper=30; a_HA=580; a_WG=246; b_HA=500; b_WG=121; c_HA=0; c_WG=187; d_feed=85; h_feed=15; h_lower=18; h_upper=40}
! Header version: 2018
! Port assignment regex: !\s*Touchstone port\s*([0-9]+)\s*=\s*(CST MWS port|CST DS port)\s*([0-9]+|Zmin|Zmax)\s*\(\"(.*)\"\)(\s*mode\s*([0-9]+))?.*
! Touchstone port assignment:
! Touchstone port 1 = CST MWS port 1 ("")
! Touchstone port 2 = CST MWS port 2 ("")
# GHz S DB R 50
0.5                     -0.14203        -122.688         -59.4583         79.8055         -59.3112         79.5346      -0.00661479         151.072
0.501                  -0.149493        -123.153         -59.1396         78.4052          -59.181         77.3651      -0.00674927         151.007
0.502                    -0.1572        -123.619         -58.8286         76.9896         -59.0448         75.2165      -0.00688268         150.941
0.503                   -0.16515        -124.086         -58.5249         75.5592         -58.9028         73.0899        -0.007015         150.876
0.504                  -0.173343        -124.555         -58.2282         74.1143         -58.7553         70.9866      -0.00714624         150.811
0.505                  -0.181778        -125.024          -57.938         72.6551         -58.6027         68.9073      -0.00727639         150.745
0.506                  -0.190454        -125.495         -57.6542         71.1822         -58.4453         66.8527      -0.00740545         150.679
0.507                  -0.199371        -125.967         -57.3765         69.6956         -58.2834         64.8234       -0.0075334         150.614
0.508                  -0.208529         -126.44         -57.1045         68.1957         -58.1173         62.8196      -0.00766026         150.548
0.509                  -0.217926        -126.914          -56.838         66.6828         -57.9473         60.8415        -0.007786         150.482
0.51                   -0.227562        -127.389         -56.5768         65.1572         -57.7738         58.8891      -0.00791064         150.416
0.511                  -0.237437        -127.865         -56.3207          63.619         -57.5969         56.9622      -0.00803417          150.35
0.512                   -0.24755        -128.342         -56.0695         62.0686          -57.417         55.0607      -0.00815659         150.284
0.513                    -0.2579         -128.82         -55.8229         60.5063         -57.2343         53.1841      -0.00827789         150.218
0.514                  -0.268486          -129.3          -55.581         58.9323         -57.0491          51.332      -0.00839808         150.152
0.515                  -0.279308         -129.78         -55.3434         57.3469         -56.8616         49.5038      -0.00851716         150.085
0.516                  -0.290365        -130.262           -55.11         55.7504          -56.672         47.6988      -0.00863512         150.019
0.517                  -0.301657        -130.745         -54.8808          54.143         -56.4805         45.9165      -0.00875197         149.952
0.518                  -0.313183        -131.229         -54.6554          52.525         -56.2873         44.1561      -0.00886771         149.886
0.519                  -0.324942        -131.714         -54.4339         50.8966         -56.0927         42.4166      -0.00898234         149.819
0.52                   -0.336933        -132.201         -54.2162         49.2583         -55.8967         40.6975      -0.00909587         149.753
0.521                  -0.349157        -132.688          -54.002         47.6101         -55.6995         38.9976      -0.00920829         149.686
0.522                  -0.361611        -133.177         -53.7913         45.9526         -55.5013         37.3163      -0.00931963         149.619
0.523                  -0.374297        -133.667          -53.584         44.2858         -55.3022         35.6525      -0.00942987         149.552
0.524                  -0.387212        -134.158           -53.38         42.6102         -55.1022         34.0054      -0.00953903         149.485
0.525                  -0.400357        -134.651         -53.1792          40.926         -54.9016         32.3741      -0.00964711         149.418
0.526                  -0.413731        -135.145         -52.9814         39.2336         -54.7004         30.7576      -0.00975412          149.35
0.527                  -0.427333         -135.64         -52.7867         37.5331         -54.4987         29.1549      -0.00986008         149.283
0.528                  -0.441163        -136.136          -52.595         35.8251         -54.2966         27.5653      -0.00996499         149.216
0.529                  -0.455221        -136.634         -52.4061         34.1096         -54.0941         25.9877       -0.0100689         149.148
0.53                   -0.469506        -137.133         -52.2199         32.3872         -53.8914         24.4212       -0.0101717         149.081
0.531                  -0.484018        -137.633         -52.0365          30.658         -53.6885          22.865       -0.0102735         149.013
0.532                  -0.498756        -138.135         -51.8556         28.9223         -53.4854         21.3181       -0.0103744         148.945
0.533                   -0.51372        -138.638         -51.6773         27.1806         -53.2823         19.7797       -0.0104742         148.877
0.534                  -0.528911        -139.142         -51.5015         25.4331         -53.0791         18.2488       -0.0105731         148.809
0.535                  -0.544327        -139.648         -51.3281         23.6802         -52.8758         16.7247       -0.0106711         148.741
0.536                  -0.559969        -140.155          -51.157         21.9221         -52.6726         15.2065       -0.0107681         148.673
0.537                  -0.575836        -140.664         -50.9882         20.1591         -52.4695         13.6933       -0.0108642         148.605
0.538                   -0.59193        -141.174         -50.8216         18.3916         -52.2665         12.1844       -0.0109595         148.536
0.539                  -0.608249        -141.686         -50.6571         16.6198         -52.0636         10.6788       -0.0110538         148.468
0.54                   -0.624795          -142.2         -50.4946         14.8441         -51.8608         9.17587       -0.0111474         148.399
0.541                  -0.641566        -142.715         -50.3342         13.0648         -51.6583         7.67478       -0.0112401          148.33
0.542                  -0.658565        -143.231         -50.1757         11.2822         -51.4559         6.17474       -0.0113321         148.261
0.543                  -0.675791        -143.749         -50.0191         9.49648         -51.2538           4.675       -0.0114233         148.192
0.544                  -0.693245        -144.269         -49.8643         7.70802         -51.0519         3.17482       -0.0115138         148.123
0.545                  -0.710927        -144.791         -49.7113         5.91708         -50.8503         1.67346       -0.0116036         148.054
0.546                  -0.728839        -145.314         -49.5599         4.12393          -50.649          0.1702       -0.0116927         147.985
0.547                  -0.746981         -145.84         -49.4101         2.32884         -50.4481        -1.33567       -0.0117813         147.915
0.548                  -0.765355        -146.367          -49.262        0.532074         -50.2475        -2.84486       -0.0118693         147.846
0.549                  -0.783961        -146.895         -49.1153        -1.26612         -50.0473        -4.35803       -0.0119567         147.776
0.55                   -0.802801        -147.426         -48.9701         -3.0655         -49.8475        -5.87588       -0.0120437         147.707
0.551                  -0.821877        -147.959         -48.8262        -4.86581         -49.6481        -7.39905       -0.0121302         147.637
0.552                  -0.841189        -148.493         -48.6837        -6.66684         -49.4492        -8.92819       -0.0122163         147.567
0.553                  -0.860741         -149.03         -48.5425        -8.46835         -49.2508        -10.4639       -0.0123021         147.497
0.554                  -0.880534        -149.569         -48.4025        -10.2701          -49.053        -12.0069       -0.0123876         147.426
0.555                   -0.90057        -150.109         -48.2637         -12.072         -48.8557        -13.5577       -0.0124728         147.356
0.556                  -0.920851        -150.652          -48.126        -13.8737         -48.6591        -15.1168       -0.0125578         147.285
0.557                   -0.94138        -151.198         -47.9893        -15.6752         -48.4631         -16.685       -0.0126427         147.215
0.558                  -0.962161        -151.745         -47.8536        -17.4761         -48.2678        -18.2626       -0.0127276         147.144
0.559                  -0.983195        -152.295         -47.7189        -19.2764         -48.0734        -19.8503       -0.0128124         147.073
0.56                    -1.00449        -152.847         -47.5851        -21.0758         -47.8797        -21.4485       -0.0128973         147.002
0.561                   -1.02604        -153.401         -47.4521        -22.8743          -47.687        -23.0577       -0.0129823         146.931
0.562                   -1.04785        -153.958         -47.3199        -24.6717         -47.4952        -24.6784       -0.0130675         146.859
0.563                   -1.06994        -154.517         -47.1885        -26.4679         -47.3044        -26.3109        -0.013153         146.788
0.564                    -1.0923        -155.079         -47.0578        -28.2627         -47.1147        -27.9557       -0.0132388         146.716
0.565                   -1.11493        -155.643         -46.9277         -30.056         -46.9262        -29.6131       -0.0133251         146.645
0.566                   -1.13785        -156.211         -46.7982        -31.8478          -46.739        -31.2833       -0.0134118         146.573
0.567                   -1.16105         -156.78         -46.6694        -33.6379         -46.5531        -32.9668       -0.0134991         146.501
0.568                   -1.18454        -157.353          -46.541        -35.4262         -46.3686        -34.6636       -0.0135871         146.429
0.569                   -1.20834        -157.929         -46.4131        -37.2128         -46.1857        -36.3739       -0.0136759         146.356
0.57                    -1.23244        -158.507         -46.2857        -38.9974         -46.0044        -38.0979       -0.0137654         146.284
0.571                   -1.25685        -159.088         -46.1586        -40.7801         -45.8249        -39.8356        -0.013856         146.211
0.572                   -1.28158        -159.673         -46.0319        -42.5608         -45.6471         -41.587       -0.0139475         146.138
0.573                   -1.30663         -160.26         -45.9056        -44.3395         -45.4714         -43.352       -0.0140402         146.065
0.574                   -1.33202        -160.851         -45.7795        -46.1162         -45.2976        -45.1305       -0.0141341         145.992
0.575                   -1.35775        -161.445         -45.6537        -47.8908          -45.126        -46.9223       -0.0142293         145.919
0.576                   -1.38383        -162.043         -45.5281        -49.6632         -44.9567        -48.7271        -0.014326         145.845
0.577                   -1.41027        -162.643         -45.4027        -51.4336         -44.7898        -50.5445       -0.0144242         145.772
0.578                   -1.43709        -163.247         -45.2775        -53.2019         -44.6253         -52.374       -0.0145241         145.698
0.579                   -1.46428        -163.855         -45.1524        -54.9681         -44.4635        -54.2152       -0.0146258         145.624
0.58                    -1.49186        -164.466         -45.0274        -56.7322         -44.3043        -56.0675       -0.0147293          145.55
0.581                   -1.51984        -165.081         -44.9025        -58.4943         -44.1478        -57.9301       -0.0148348         145.476
0.582                   -1.54824          -165.7         -44.7776        -60.2543         -43.9943        -59.8022       -0.0149425         145.401
0.583                   -1.57707        -166.323         -44.6527        -62.0124         -43.8437        -61.6831       -0.0150524         145.327
0.584                   -1.60633        -166.949         -44.5279        -63.7685          -43.696        -63.5718       -0.0151647         145.252
0.585                   -1.63605         -167.58          -44.403        -65.5228         -43.5515        -65.4673       -0.0152794         145.177
0.586                   -1.66624        -168.215         -44.2781        -67.2752           -43.41        -67.3685       -0.0153968         145.102
0.587                   -1.69692        -168.854         -44.1531        -69.0259         -43.2718        -69.2744       -0.0155169         145.026
0.588                   -1.72809        -169.497          -44.028        -70.7748         -43.1366        -71.1838       -0.0156399         144.951
0.589                   -1.75979        -170.144         -43.9029        -72.5222         -43.0047        -73.0953       -0.0157658         144.875
0.59                    -1.79202        -170.796         -43.7776         -74.268         -42.8758         -75.008        -0.015895         144.799
0.591                    -1.8248        -171.452         -43.6522        -76.0123         -42.7502        -76.9203       -0.0160274         144.723
0.592                   -1.85816        -172.113         -43.5267        -77.7552         -42.6276        -78.8312       -0.0161632         144.647
0.593                   -1.89211        -172.779          -43.401        -79.4969          -42.508        -80.7393       -0.0163025          144.57
0.594                   -1.92668        -173.449         -43.2752        -81.2374         -42.3913        -82.6433       -0.0164455         144.494
0.595                   -1.96189        -174.124         -43.1492        -82.9767         -42.2775        -84.5421       -0.0165923         144.417
0.596                   -1.99777        -174.804          -43.023        -84.7151         -42.1664        -86.4344       -0.0167431          144.34
0.597                   -2.03433         -175.49         -42.8966        -86.4527         -42.0579        -88.3192        -0.016898         144.263
0.598                    -2.0716         -176.18         -42.7701        -88.1894         -41.9518        -90.1954       -0.0170571         144.185
0.599                   -2.10962        -176.875         -42.6433        -89.9256         -41.8479         -92.062       -0.0172205         144.107
0.6                     -2.14841        -177.576         -42.5164        -91.6611         -41.7462        -93.9182       -0.0173884          144.03
0.601                   -2.18799        -178.282         -42.3892        -93.3963         -41.6464         -95.763        -0.017561         143.952
0.602                   -2.22841        -178.993         -42.2618        -95.1312         -41.5483        -97.5959       -0.0177383         143.873
0.603                   -2.26969         -179.71         -42.1343        -96.8659         -41.4516        -99.4163       -0.0179205         143.795
0.604                   -2.31187         179.568         -42.0065        -98.6006         -41.3563        -101.224       -0.0181077         143.716
0.605                   -2.35498          178.84         -41.8785        -100.335          -41.262        -103.018          -0.0183         143.637
0.606                   -2.39906         178.107         -41.7504         -102.07         -41.1686        -104.798       -0.0184977         143.558
0.607                   -2.44414         177.368          -41.622        -103.806         -41.0757        -106.565       -0.0187007         143.479
0.608                   -2.49027         176.623         -41.4934        -105.541         -40.9833        -108.318       -0.0189092         143.399
0.609                    -2.5375         175.872         -41.3647        -107.278          -40.891        -110.058       -0.0191234         143.319
0.61                    -2.58585         175.115         -41.2358        -109.015         -40.7988        -111.785       -0.0193433         143.239
0.611                   -2.63538         174.353         -41.1067        -110.753         -40.7062        -113.499       -0.0195691         143.159
0.612                   -2.68614         173.585         -40.9775        -112.492         -40.6133        -115.201       -0.0198008         143.079
0.613                   -2.73817          172.81         -40.8481        -114.232         -40.5197        -116.892       -0.0200386         142.998
0.614                   -2.79153          172.03         -40.7186        -115.974         -40.4253        -118.571       -0.0202826         142.917
0.615                   -2.84626         171.244          -40.589        -117.717           -40.33         -120.24       -0.0205329         142.836
0.616                   -2.90242         170.452         -40.4592        -119.461         -40.2335          -121.9       -0.0207895         142.755
0.617                   -2.96006         169.654         -40.3294        -121.207         -40.1359        -123.552       -0.0210525         142.673
0.618                   -3.01926          168.85         -40.1995        -122.955         -40.0368        -125.197       -0.0213221         142.591
0.619                   -3.08006         168.041         -40.0695        -124.704         -39.9363        -126.835       -0.0215983         142.509
0.62                    -3.14252         167.226         -39.9394        -126.456         -39.8342        -128.468       -0.0218812         142.427
0.621                   -3.20672         166.405         -39.8094         -128.21         -39.7305        -130.097       -0.0221709         142.344
0.622                   -3.27272         165.578         -39.6793        -129.966         -39.6252        -131.723       -0.0224673         142.261
0.623                   -3.34058         164.746         -39.5492        -131.724         -39.5181        -133.347       -0.0227706         142.178
0.624                   -3.41038         163.909         -39.4192        -133.485         -39.4093         -134.97       -0.0230809         142.095
0.625                   -3.48219         163.066         -39.2892        -135.248         -39.2987        -136.594       -0.0233981         142.011
0.626                   -3.55609         162.219         -39.1593        -137.014         -39.1864        -138.219       -0.0237223         141.927
0.627                   -3.63214         161.367         -39.0295        -138.783         -39.0724        -139.847       -0.0240536         141.843
0.628                   -3.71043          160.51         -38.8998        -140.554         -38.9567        -141.478       -0.0243919         141.759
0.629                   -3.79104         159.649         -38.7702        -142.329         -38.8394        -143.113       -0.0247374         141.674
0.63                    -3.87405         158.784         -38.6408        -144.106         -38.7205        -144.754         -0.02509         141.589
0.631                   -3.95954         157.915         -38.5116        -145.886         -38.6001        -146.401       -0.0254497         141.504
0.632                   -4.04759         157.043         -38.3826         -147.67         -38.4784        -148.055       -0.0258165         141.419
0.633                    -4.1383         156.168         -38.2539        -149.456         -38.3553        -149.717       -0.0261906         141.333
0.634                   -4.23174          155.29         -38.1254        -151.246          -38.231        -151.387       -0.0265718         141.247
0.635                     -4.328         154.411         -37.9972        -153.039         -38.1056        -153.067       -0.0269601         141.161
0.636                   -4.42717          153.53         -37.8693        -154.835         -37.9793        -154.756       -0.0273556         141.074
0.637                   -4.52934         152.647         -37.7418        -156.634          -37.852        -156.454       -0.0277583         140.987
0.638                    -4.6346         151.765         -37.6147        -158.437         -37.7241        -158.164       -0.0281681           140.9
0.639                   -4.74303         150.882         -37.4879        -160.243         -37.5955        -159.883        -0.028585         140.813
0.64                    -4.85472             150         -37.3616        -162.052         -37.4664        -161.614        -0.029009         140.725
0.641                   -4.96975          149.12         -37.2358        -163.864          -37.337        -163.356         -0.02944         140.637
0.642                   -5.08822         148.243         -37.1104         -165.68         -37.2073        -165.109       -0.0298782         140.548
0.643                    -5.2102         147.368         -36.9856        -167.498         -37.0776        -166.873       -0.0303233          140.46
0.644                   -5.33577         146.498         -36.8613         -169.32         -36.9479        -168.647       -0.0307755         140.371
0.645                   -5.46501         145.633         -36.7375        -171.145         -36.8183        -170.433       -0.0312347         140.281
0.646                   -5.59799         144.774         -36.6144        -172.972          -36.689         -172.23       -0.0317008         140.192
0.647                   -5.73478         143.922         -36.4919        -174.803         -36.5602        -174.036       -0.0321739         140.102
0.648                   -5.87544         143.078           -36.37        -176.637         -36.4318        -175.853       -0.0326539         140.011
0.649                   -6.02004         142.245         -36.2488        -178.473          -36.304         -177.68       -0.0331408         139.921
0.65                    -6.16862         141.422         -36.1282         179.688          -36.177        -179.516       -0.0336346          139.83
0.651                   -6.32123         140.611         -36.0084         177.847         -36.0508          178.64       -0.0341352         139.738
0.652                    -6.4779         139.814         -35.8893         176.003         -35.9254         176.787       -0.0346428         139.647
0.653                   -6.63867         139.032          -35.771         174.158         -35.8011         174.926       -0.0351572         139.555
0.654                   -6.80354         138.267         -35.6535          172.31         -35.6778         173.058       -0.0356784         139.462
0.655                   -6.97251          137.52         -35.5367          170.46         -35.5556         171.184       -0.0362065         139.369
0.656                   -7.14559         136.794         -35.4207         168.608         -35.4346         169.304       -0.0367415         139.276
0.657                   -7.32274         136.089         -35.3056         166.755         -35.3148         167.418       -0.0372834         139.182
0.658                   -7.50393         135.408         -35.1913           164.9         -35.1962         165.528       -0.0378322         139.088
0.659                    -7.6891         134.753         -35.0779         163.044          -35.079         163.634        -0.038388         138.994
0.66                    -7.87817         134.125         -34.9653         161.187         -34.9631         161.736       -0.0389509         138.899
0.661                   -8.07105         133.527         -34.8535         159.329         -34.8485         159.836       -0.0395207         138.804
0.662                   -8.26761         132.961         -34.7427          157.47         -34.7353         157.934       -0.0400978         138.708
0.663                    -8.4677         132.429         -34.6327         155.611         -34.6234          156.03       -0.0406821         138.612
0.664                   -8.67116         131.933         -34.5236         153.752         -34.5129         154.126       -0.0412736         138.516
0.665                   -8.87779         131.476         -34.4154         151.893         -34.4037         152.221       -0.0418726         138.419
0.666                   -9.08734         131.059          -34.308         150.034         -34.2959         150.317       -0.0424792         138.321
0.667                   -9.29955         130.685         -34.2016         148.175         -34.1893         148.414       -0.0430935         138.223
0.668                   -9.51411         130.356          -34.096         146.317          -34.084         146.513       -0.0437155         138.125
0.669                   -9.73068         130.074         -33.9913         144.459           -33.98         144.613       -0.0443456         138.026
0.67                    -9.94888         129.841         -33.8874         142.603         -33.8771         142.717       -0.0449839         137.927
0.671                   -10.1683          129.66         -33.7844         140.748         -33.7754         140.823       -0.0456306         137.827
0.672                   -10.3884         129.532         -33.6822         138.895         -33.6748         138.933       -0.0462859         137.727
0.673                   -10.6087          129.46         -33.5808         137.043         -33.5753         137.046         -0.04695         137.626
0.674                   -10.8287         129.443         -33.4802         135.193         -33.4768         135.164       -0.0476233         137.524
0.675                   -11.0477         129.485         -33.3804         133.345         -33.3792         133.287        -0.048306         137.422
0.676                   -11.2651         129.585         -33.2813         131.499         -33.2826         131.414       -0.0489984          137.32
0.677                   -11.4801         129.744          -33.183         129.656         -33.1867         129.547       -0.0497009         137.217
0.678                   -11.6922         129.963         -33.0854         127.816         -33.0917         127.684       -0.0504138         137.113
0.679                   -11.9004         130.241         -32.9885         125.978         -32.9974         125.828       -0.0511375         137.009
0.68                     -12.104         130.577         -32.8923         124.143         -32.9037         123.977       -0.0518724         136.904
0.681                   -12.3022          130.97         -32.7966         122.312         -32.8107         122.132       -0.0526189         136.799
0.682                   -12.4942         131.419         -32.7016         120.484         -32.7181         120.294       -0.0533776         136.693
0.683                   -12.6792         131.919         -32.6071         118.659         -32.6261         118.461       -0.0541488         136.586
0.684                   -12.8564         132.469         -32.5132         116.838         -32.5344         116.634       -0.0549332         136.479
0.685                   -13.0251         133.064         -32.4197         115.021         -32.4432         114.814       -0.0557312         136.371
0.686                   -13.1846         133.699         -32.3267         113.207         -32.3522             113       -0.0565435         136.262
0.687                   -13.3342         134.369         -32.2341         111.398         -32.2614         111.192       -0.0573707         136.153
0.688                   -13.4735          135.07         -32.1419         109.592         -32.1709          109.39       -0.0582135         136.043
0.689                    -13.602         135.793           -32.05         107.791         -32.0804         107.594       -0.0590725         135.932
0.69                    -13.7194         136.533         -31.9585         105.993           -31.99         105.805       -0.0599484         135.821
0.691                   -13.8255         137.284         -31.8672           104.2         -31.8997         104.021        -0.060842         135.708
0.692                   -13.9202         138.037         -31.7761         102.411         -31.8093         102.243       -0.0617542         135.595
0.693                   -14.0035         138.786         -31.6851         100.627         -31.7188         100.471       -0.0626858         135.482
0.694                   -14.0757         139.525         -31.5944         98.8466         -31.6282          98.704       -0.0636376         135.367
0.695                    -14.137         140.246         -31.5037         97.0707         -31.5374         96.9426       -0.0646105         135.252
0.696                   -14.1879         140.944          -31.413          95.299         -31.4464         95.1864       -0.0656056         135.136
0.697                   -14.2287         141.612         -31.3224         93.5316         -31.3552         93.4351       -0.0666239         135.019