! TOUCHSTONE file generated by CST MICROWAVE STUDIO
! Date and time: Fri Oct  2 16:53:01 2020
! Project name: Scenario_1_Free_Space_out_of_line.cst
! Parameters = {Lambda=346.42; Step_1=17.321; dy1=346; dx1=693; L_HA=400; MT=2.54; Rad_Dielectric=30; Rad_Lower=7.3; Rad_Upper=30; a_HA=580; a_WG=246; b_HA=500; b_WG=121; c_HA=0; c_WG=187; d_feed=85; h_feed=15; h_lower=18; h_upper=40}
! Header version: 2018
! Port assignment regex: !\s*Touchstone port\s*([0-9]+)\s*=\s*(CST MWS port|CST DS port)\s*([0-9]+|Zmin|Zmax)\s*\(\"(.*)\"\)(\s*mode\s*([0-9]+))?.*
! Touchstone port assignment:
! Touchstone port 1 = CST MWS port 1 ("")
! Touchstone port 2 = CST MWS port 2 ("")
# GHz S DB R 50
0.5                     -0.15031        -122.537         -64.9037        -149.538         -64.8979        -149.536      -0.00672502         151.152
0.501                  -0.154094         -122.98         -64.8731        -152.728         -64.8674        -152.724       -0.0067831         151.087
0.502                   -0.15812        -123.426         -64.8265        -155.921         -64.8209        -155.917      -0.00684192         151.021
0.503                  -0.162391        -123.873          -64.764        -159.111         -64.7586        -159.105       -0.0069015         150.956
0.504                  -0.166911        -124.323          -64.686        -162.287         -64.6807         -162.28      -0.00696185          150.89
0.505                  -0.171682        -124.774         -64.5929        -165.443         -64.5878        -165.434      -0.00702296         150.825
0.506                  -0.176709        -125.228         -64.4854         -168.57         -64.4805         -168.56      -0.00708486         150.759
0.507                  -0.181994        -125.684         -64.3642        -171.661         -64.3595        -171.651      -0.00714754         150.694
0.508                  -0.187542        -126.142         -64.2301        -174.712         -64.2257        -174.701      -0.00721102         150.628
0.509                  -0.193354        -126.602         -64.0842        -177.717         -64.0799        -177.705       -0.0072753         150.562
0.51                   -0.199436        -127.065         -63.9272         179.329         -63.9232         179.341       -0.0073404         150.496
0.511                   -0.20579        -127.529         -63.7603         176.427         -63.7564          176.44      -0.00740631          150.43
0.512                  -0.212419        -127.996         -63.5844         173.582         -63.5807         173.595      -0.00747306         150.364
0.513                  -0.219327        -128.465         -63.4005         170.794          -63.397         170.807      -0.00754065         150.298
0.514                  -0.226517        -128.936         -63.2095         168.064         -63.2062         168.077      -0.00760909         150.231
0.515                  -0.233993        -129.409         -63.0124         165.392         -63.0093         165.405      -0.00767839         150.165
0.516                  -0.241758        -129.884           -62.81         162.778         -62.8071         162.791      -0.00774856         150.099
0.517                  -0.249816        -130.361         -62.6031         160.221         -62.6004         160.234       -0.0078196         150.032
0.518                   -0.25817        -130.841         -62.3925          157.72           -62.39         157.733      -0.00789153         149.966
0.519                  -0.266823        -131.322         -62.1789         155.273         -62.1766         155.286      -0.00796436         149.899
0.52                   -0.275779        -131.806         -61.9629         152.878         -61.9607          152.89       -0.0080381         149.832
0.521                  -0.285041        -132.292         -61.7451         150.533          -61.743         150.545      -0.00811275         149.765
0.522                  -0.294612         -132.78          -61.526         148.236          -61.524         148.248      -0.00818834         149.698
0.523                  -0.304497         -133.27          -61.306         145.984         -61.3042         145.996      -0.00826487         149.631
0.524                  -0.314698        -133.762         -61.0856         143.776         -61.0839         143.787      -0.00834234         149.564
0.525                  -0.325218        -134.257         -60.8651         141.608         -60.8635         141.618      -0.00842078         149.497
0.526                  -0.336062        -134.753         -60.6448         139.478         -60.6434         139.488      -0.00850019         149.429
0.527                  -0.347232        -135.252         -60.4251         137.384         -60.4237         137.393      -0.00858059         149.362
0.528                  -0.358732        -135.753         -60.2061         135.323         -60.2048         135.332      -0.00866198         149.294
0.529                  -0.370565        -136.256          -59.988         133.293         -59.9869         133.302      -0.00874439         149.227
0.53                   -0.382735        -136.761         -59.7712         131.292         -59.7701           131.3      -0.00882781         149.159
0.531                  -0.395245        -137.268         -59.5556         129.317         -59.5545         129.325      -0.00891227         149.091
0.532                  -0.408098        -137.777         -59.3414         127.367         -59.3405         127.375      -0.00899777         149.023
0.533                  -0.421298        -138.288         -59.1288         125.439         -59.1279         125.446      -0.00908433         148.955
0.534                  -0.434847        -138.802         -58.9178         123.531          -58.917         123.538      -0.00917196         148.887
0.535                  -0.448751        -139.318         -58.7085         121.642         -58.7077         121.648      -0.00926068         148.819
0.536                   -0.46301        -139.835         -58.5009         119.769         -58.5002         119.775       -0.0093505         148.751
0.537                   -0.47763        -140.355         -58.2952         117.912         -58.2945         117.917      -0.00944143         148.682
0.538                  -0.492613        -140.877         -58.0912         116.067         -58.0906         116.072      -0.00953349         148.614
0.539                  -0.507963        -141.401         -57.8892         114.234         -57.8886         114.239      -0.00962669         148.545
0.54                   -0.523682        -141.927          -57.689         112.411         -57.6885         112.416      -0.00972105         148.476
0.541                  -0.539775        -142.455         -57.4908         110.597         -57.4903         110.601      -0.00981658         148.408
0.542                  -0.556245        -142.986         -57.2944         108.789         -57.2939         108.793      -0.00991329         148.339
0.543                  -0.573094        -143.518         -57.0999         106.988         -57.0995         106.991       -0.0100112          148.27
0.544                  -0.590327        -144.053         -56.9073         105.191         -56.9069         105.194       -0.0101103           148.2
0.545                  -0.607946        -144.589         -56.7166         103.398         -56.7162         103.401       -0.0102107         148.131
0.546                  -0.625955        -145.128         -56.5277         101.606         -56.5274         101.609       -0.0103123         148.062
0.547                  -0.644357        -145.669         -56.3407         99.8161         -56.3404         99.8184       -0.0104152         147.992
0.548                  -0.663156        -146.212         -56.1555         98.0258         -56.1552         98.0278       -0.0105194         147.923
0.549                  -0.682354        -146.757         -55.9721         96.2345         -55.9719         96.2362       -0.0106248         147.853
0.55                   -0.701956        -147.304         -55.7905         94.4411         -55.7903         94.4426       -0.0107316         147.783
0.551                  -0.721964        -147.853         -55.6106         92.6448         -55.6105          92.646       -0.0108398         147.713
0.552                  -0.742383        -148.405         -55.4325         90.8445         -55.4324         90.8455       -0.0109492         147.643
0.553                  -0.763214        -148.958         -55.2561         89.0396          -55.256         89.0403       -0.0110601         147.573
0.554                  -0.784463        -149.514         -55.0814          87.229         -55.0813         87.2295       -0.0111723         147.502
0.555                  -0.806131        -150.071         -54.9083         85.4121         -54.9082         85.4124        -0.011286         147.432
0.556                  -0.828224        -150.631         -54.7368          83.588         -54.7368         83.5881       -0.0114011         147.361
0.557                  -0.850743        -151.193          -54.567         81.7561         -54.5669          81.756       -0.0115176         147.291
0.558                  -0.873694        -151.757         -54.3987         79.9156         -54.3986         79.9153       -0.0116357          147.22
0.559                  -0.897078        -152.323         -54.2319         78.0659         -54.2319         78.0654       -0.0117552         147.149
0.56                     -0.9209        -152.891         -54.0667         76.2063         -54.0667         76.2057       -0.0118762         147.078
0.561                  -0.945164        -153.462         -53.9029         74.3363         -53.9029         74.3354       -0.0119988         147.007
0.562                  -0.969873        -154.034         -53.7406         72.4551         -53.7406         72.4541        -0.012123         146.935
0.563                  -0.995032        -154.609         -53.5798         70.5624         -53.5798         70.5612       -0.0122487         146.864
0.564                   -1.02064        -155.185         -53.4203         68.6575         -53.4203         68.6562        -0.012376         146.792
0.565                   -1.04671        -155.764         -53.2622         66.7399         -53.2622         66.7385        -0.012505         146.721
0.566                   -1.07324        -156.346         -53.1055         64.8092         -53.1055         64.8077       -0.0126356         146.649
0.567                   -1.10023        -156.929           -52.95         62.8649         -52.9501         62.8633       -0.0127679         146.577
0.568                   -1.12769        -157.514         -52.7959         60.9067          -52.796         60.9049        -0.012902         146.505
0.569                   -1.15563        -158.102         -52.6431          58.934         -52.6432         58.9322       -0.0130377         146.432
0.57                    -1.18404        -158.692         -52.4915         56.9466         -52.4916         56.9447       -0.0131752          146.36
0.571                   -1.21293        -159.284         -52.3412         54.9441         -52.3413         54.9421       -0.0133146         146.287
0.572                   -1.24231        -159.878          -52.192         52.9262         -52.1921         52.9241       -0.0134557         146.215
0.573                   -1.27218        -160.475          -52.044         50.8926         -52.0441         50.8905       -0.0135987         146.142
0.574                   -1.30255        -161.073         -51.8972         48.8431         -51.8973         48.8409       -0.0137435         146.069
0.575                   -1.33341        -161.674         -51.7515         46.7774         -51.7517         46.7752       -0.0138903         145.996
0.576                   -1.36478        -162.278          -51.607         44.6954         -51.6071         44.6931        -0.014039         145.922
0.577                   -1.39667        -162.883         -51.4635         42.5968         -51.4636         42.5945       -0.0141897         145.849
0.578                   -1.42906        -163.491         -51.3211         40.4816         -51.3212         40.4792       -0.0143424         145.775
0.579                   -1.46198        -164.101         -51.1797         38.3496         -51.1799         38.3472       -0.0144971         145.701
0.58                    -1.49543        -164.714         -51.0394         36.2008         -51.0396         36.1984       -0.0146539         145.627
0.581                   -1.52941        -165.328         -50.9001         34.0351         -50.9003         34.0326       -0.0148128         145.553
0.582                   -1.56393        -165.946         -50.7618         31.8525         -50.7619         31.8501       -0.0149739         145.479
0.583                   -1.59899        -166.565         -50.6244         29.6531         -50.6246         29.6507       -0.0151371         145.405
0.584                   -1.63461        -167.187          -50.488         27.4369         -50.4882         27.4344       -0.0153025          145.33
0.585                   -1.67078        -167.812         -50.3525         25.2039         -50.3527         25.2015       -0.0154702         145.255
0.586                   -1.70752        -168.439          -50.218         22.9544         -50.2182         22.9521       -0.0156402         145.181
0.587                   -1.74484        -169.068         -50.0843         20.6886         -50.0845         20.6862       -0.0158126         145.105
0.588                   -1.78273          -169.7         -49.9515         18.4064         -49.9517         18.4041       -0.0159873          145.03
0.589                   -1.82122        -170.334         -49.8196         16.1084         -49.8197         16.1061       -0.0161645         144.955
0.59                     -1.8603        -170.971         -49.6884         13.7945         -49.6886         13.7923       -0.0163441         144.879
0.591                   -1.89998        -171.611         -49.5581         11.4653         -49.5583         11.4631       -0.0165262         144.803
0.592                   -1.94028        -172.253         -49.4287         9.12098         -49.4288         9.11886       -0.0167109         144.727
0.593                   -1.98121        -172.898         -49.2999         6.76193         -49.3001         6.75987       -0.0168982         144.651
0.594                   -2.02277        -173.545          -49.172         4.38854         -49.1722         4.38655       -0.0170882         144.575
0.595                   -2.06497        -174.195         -49.0448         2.00126          -49.045         1.99933       -0.0172809         144.499
0.596                   -2.10783        -174.848         -48.9183       -0.399467         -48.9185       -0.401329       -0.0174764         144.422
0.597                   -2.15135        -175.504         -48.7925        -2.81315         -48.7927        -2.81494       -0.0176746         144.345
0.598                   -2.19555        -176.162         -48.6674        -5.23927         -48.6676        -5.24099       -0.0178758         144.268
0.599                   -2.24044        -176.823          -48.543        -7.67729         -48.5432        -7.67893       -0.0180799         144.191
0.6                     -2.28603        -177.487         -48.4192        -10.1266         -48.4194        -10.1282        -0.018287         144.113
0.601                   -2.33234        -178.154         -48.2961        -12.5867         -48.2962        -12.5882       -0.0184972         144.036
0.602                   -2.37937        -178.824         -48.1735        -15.0569         -48.1737        -15.0583       -0.0187105         143.958
0.603                   -2.42715        -179.497         -48.0516        -17.5366         -48.0518        -17.5379        -0.018927          143.88
0.604                   -2.47568         179.828         -47.9303        -20.0252         -47.9304        -20.0264       -0.0191467         143.801
0.605                   -2.52499         179.149         -47.8095        -22.5218         -47.8097         -22.523       -0.0193698         143.723
0.606                   -2.57508         178.467         -47.6893         -25.026         -47.6894        -25.0271       -0.0195963         143.644
0.607                   -2.62599         177.783         -47.5696         -27.537         -47.5697        -27.5379       -0.0198263         143.565
0.608                   -2.67771         177.095         -47.4504        -30.0541         -47.4505        -30.0549       -0.0200598         143.486
0.609                   -2.73028         176.404         -47.3317        -32.5765         -47.3318        -32.5773        -0.020297         143.407
0.61                    -2.78371          175.71         -47.2134        -35.1037         -47.2136        -35.1043        -0.020538         143.327
0.611                   -2.83803         175.013         -47.0957        -37.6348         -47.0958        -37.6353       -0.0207827         143.247
0.612                   -2.89324         174.313         -46.9784        -40.1691         -46.9785        -40.1696       -0.0210314         143.167
0.613                   -2.94938         173.609         -46.8615         -42.706         -46.8616        -42.7064        -0.021284         143.087
0.614                   -3.00647         172.902          -46.745        -45.2447         -46.7451         -45.245       -0.0215408         143.007
0.615                   -3.06453         172.192          -46.629        -47.7845         -46.6291        -47.7848       -0.0218018         142.926
0.616                   -3.12358         171.479         -46.5133        -50.3248         -46.5134         -50.325       -0.0220671         142.845
0.617                   -3.18366         170.763          -46.398         -52.865         -46.3981         -52.865       -0.0223368         142.764
0.618                   -3.24478         170.043          -46.283        -55.4042         -46.2831        -55.4042        -0.022611         142.683
0.619                   -3.30698          169.32         -46.1684        -57.9419         -46.1685        -57.9418       -0.0228899         142.601
0.62                    -3.37028         168.593         -46.0542        -60.4775         -46.0542        -60.4774       -0.0231736         142.519
0.621                   -3.43472         167.864         -45.9403        -63.0104         -45.9403        -63.0102       -0.0234622         142.437
0.622                   -3.50032         167.131         -45.8266          -65.54         -45.8267        -65.5398       -0.0237559         142.354
0.623                   -3.56712         166.394         -45.7133        -68.0658         -45.7134        -68.0655       -0.0240547         142.272
0.624                   -3.63516         165.655         -45.6003        -70.5872         -45.6003        -70.5868       -0.0243588         142.189
0.625                   -3.70446         164.912         -45.4876        -73.1037         -45.4876        -73.1033       -0.0246684         142.105
0.626                   -3.77506         164.166         -45.3751        -75.6149         -45.3751        -75.6144       -0.0249836         142.022
0.627                   -3.84701         163.417         -45.2629        -78.1203         -45.2629        -78.1198       -0.0253046         141.938
0.628                   -3.92033         162.665         -45.1509        -80.6195         -45.1509         -80.619       -0.0256316         141.854
0.629                   -3.99508          161.91         -45.0393        -83.1122         -45.0393        -83.1116       -0.0259646          141.77
0.63                    -4.07128         161.151         -44.9278        -85.5979         -44.9278        -85.5973        -0.026304         141.685
0.631                   -4.14899          160.39         -44.8166        -88.0764         -44.8166        -88.0757       -0.0266498           141.6
0.632                   -4.22824         159.626         -44.7056        -90.5473         -44.7056        -90.5466       -0.0270023         141.515
0.633                   -4.30909         158.859         -44.5949        -93.0105         -44.5949        -93.0098       -0.0273616          141.43
0.634                   -4.39158          158.09         -44.4844        -95.4656         -44.4844        -95.4649       -0.0277279         141.344
0.635                   -4.47576         157.318         -44.3741        -97.9125         -44.3741        -97.9118       -0.0281015         141.258
0.636                   -4.56167         156.544         -44.2641        -100.351          -44.264         -100.35       -0.0284825         141.172
0.637                   -4.64937         155.767         -44.1542        -102.781         -44.1541         -102.78       -0.0288711         141.085
0.638                   -4.73891         154.988         -44.0446        -105.202         -44.0445        -105.202       -0.0292676         140.998
0.639                   -4.83035         154.208         -43.9352        -107.615         -43.9351        -107.614       -0.0296721         140.911
0.64                    -4.92373         153.426         -43.8259        -110.019         -43.8259        -110.018       -0.0300848         140.823
0.641                   -5.01912         152.642          -43.717        -112.414         -43.7169        -112.413       -0.0305059         140.735
0.642                   -5.11656         151.857         -43.6082          -114.8         -43.6081          -114.8       -0.0309357         140.647
0.643                   -5.21612         151.071         -43.4996        -117.178         -43.4995        -117.177       -0.0313743         140.558
0.644                   -5.31785         150.285         -43.3913        -119.547         -43.3912        -119.546       -0.0318218         140.469
0.645                   -5.42182         149.498         -43.2831        -121.907          -43.283        -121.906       -0.0322786          140.38
0.646                   -5.52808         148.711         -43.1752        -124.259         -43.1751        -124.258       -0.0327446         140.291
0.647                   -5.63669         147.925         -43.0675        -126.602         -43.0674        -126.601       -0.0332201         140.201
0.648                   -5.74771         147.139         -42.9601        -128.937         -42.9599        -128.936       -0.0337052          140.11
0.649                    -5.8612         146.355         -42.8528        -131.263         -42.8527        -131.263       -0.0341999          140.02
0.65                    -5.97723         145.572         -42.7458        -133.582         -42.7457        -133.582       -0.0347044         139.929
0.651                   -6.09584         144.791          -42.639        -135.893         -42.6389        -135.893       -0.0352188         139.838
0.652                    -6.2171         144.013         -42.5325        -138.197         -42.5323        -138.196        -0.035743         139.746
0.653                   -6.34107         143.239         -42.4262        -140.493          -42.426        -140.492       -0.0362771         139.654
0.654                   -6.46779         142.468         -42.3201        -142.782           -42.32        -142.781        -0.036821         139.562
0.655                   -6.59734         141.701         -42.2143        -145.064         -42.2142        -145.063       -0.0373747         139.469
0.656                   -6.72976          140.94         -42.1088        -147.339         -42.1086        -147.339       -0.0379382         139.376
0.657                   -6.86509         140.185         -42.0035        -149.608         -42.0033        -149.608       -0.0385113         139.282
0.658                   -7.00339         139.436         -41.8985        -151.871         -41.8983         -151.87        -0.039094         139.188
0.659                   -7.14471         138.695         -41.7937        -154.128         -41.7936        -154.127       -0.0396861         139.094
0.66                    -7.28908         137.962         -41.6893        -156.379         -41.6891        -156.379       -0.0402875         138.999
0.661                   -7.43654         137.238         -41.5851        -158.625         -41.5849        -158.625        -0.040898         138.904
0.662                   -7.58713         136.524         -41.4812        -160.867          -41.481        -160.867       -0.0415175         138.809
0.663                   -7.74087         135.821         -41.3776        -163.103         -41.3775        -163.103       -0.0421458         138.713
0.664                   -7.89778          135.13         -41.2743        -165.335         -41.2742        -165.336       -0.0427828         138.616
0.665                   -8.05788         134.452         -41.1714        -167.564         -41.1712        -167.564       -0.0434284          138.52
0.666                   -8.22117         133.788         -41.0687        -169.788         -41.0686        -169.788       -0.0440825         138.423
0.667                   -8.38766          133.14         -40.9664        -172.009         -40.9663         -172.01       -0.0447451         138.325
0.668                   -8.55735         132.509         -40.8645        -174.227         -40.8643        -174.228        -0.045416         138.227
0.669                    -8.7302         131.895         -40.7628        -176.443         -40.7627        -176.443       -0.0460954         138.128
0.67                     -8.9062           131.3         -40.6616        -178.655         -40.6614        -178.656       -0.0467832         138.029
0.671                    -9.0853         130.725         -40.5607         179.134         -40.5605         179.134       -0.0474796          137.93
0.672                   -9.26747         130.173         -40.4601         176.925           -40.46         176.925       -0.0481848          137.83
0.673                   -9.45262         129.643           -40.36         174.718         -40.3598         174.718       -0.0488989         137.729
0.674                    -9.6407         129.138         -40.2602         172.512         -40.2601         172.512       -0.0496222         137.628
0.675                   -9.83161         128.659         -40.1608         170.307         -40.1607         170.307        -0.050355         137.527
0.676                   -10.0252         128.207         -40.0619         168.103         -40.0617         168.102       -0.0510976         137.424
0.677                   -10.2215         127.784         -39.9633         165.899         -39.9632         165.899       -0.0518506         137.322
0.678                   -10.4202         127.392         -39.8652         163.695         -39.8651         163.695       -0.0526142         137.219
0.679                   -10.6212         127.031         -39.7675         161.491         -39.7674         161.491        -0.053389         137.115
0.68                    -10.8243         126.704         -39.6702         159.287         -39.6701         159.286       -0.0541755         137.011
0.681                   -11.0294         126.411         -39.5734         157.082         -39.5733         157.081       -0.0549743         136.906
0.682                   -11.2362         126.155         -39.4771         154.876         -39.4769         154.875       -0.0557859           136.8
0.683                   -11.4444         125.936         -39.3812         152.669          -39.381         152.668       -0.0566109         136.694
0.684                   -11.6539         125.757         -39.2857          150.46         -39.2856         150.459       -0.0574499         136.587
0.685                   -11.8643         125.617         -39.1908          148.25         -39.1907         148.249       -0.0583037          136.48
0.686                   -12.0753          125.52         -39.0963         146.037         -39.0962         146.036       -0.0591728         136.372
0.687                   -12.2866         125.464         -39.0023         143.823         -39.0022         143.822       -0.0600579         136.263
0.688                   -12.4978         125.453         -38.9088         141.607         -38.9087         141.606       -0.0609598         136.153
0.689                   -12.7086         125.486         -38.8159         139.388         -38.8158         139.386       -0.0618792         136.043
0.69                    -12.9185         125.563         -38.7234         137.166         -38.7233         137.165       -0.0628166         135.932
0.691                   -13.1272         125.687         -38.6314         134.941         -38.6313          134.94        -0.063773         135.821
0.692                   -13.3341         125.856           -38.54         132.714         -38.5399         132.713        -0.064749         135.709
0.693                   -13.5389         126.072         -38.4491         130.484          -38.449         130.482       -0.0657455         135.596
0.694                    -13.741         126.333         -38.3586          128.25         -38.3586         128.249        -0.066763         135.482
0.695                     -13.94          126.64         -38.2688         126.013         -38.2687         126.012       -0.0678025         135.368
0.696                   -14.1353         126.992         -38.1794         123.772         -38.1793         123.771       -0.0688647         135.252
0.697                   -14.3265         127.387         -38.0906         121.528         -38.0905         121.527       -0.0699505         135.136