! TOUCHSTONE file generated by CST MICROWAVE STUDIO
! Date and time: Fri Oct  2 16:57:21 2020
! Project name: Scenario_1_Free_Space_out_of_line.cst
! Parameters = {Lambda=346.42; Step_1=17.321; dy1=0.82; dx1=693; L_HA=400; MT=2.54; Rad_Dielectric=30; Rad_Lower=7.3; Rad_Upper=30; a_HA=580; a_WG=246; b_HA=500; b_WG=121; c_HA=0; c_WG=187; d_feed=85; h_feed=15; h_lower=18; h_upper=40}
! Header version: 2018
! Port assignment regex: !\s*Touchstone port\s*([0-9]+)\s*=\s*(CST MWS port|CST DS port)\s*([0-9]+|Zmin|Zmax)\s*\(\"(.*)\"\)(\s*mode\s*([0-9]+))?.*
! Touchstone port assignment:
! Touchstone port 1 = CST MWS port 1 ("")
! Touchstone port 2 = CST MWS port 2 ("")
# GHz S DB R 50
0.5                    -0.145971        -122.651         -62.2489        -115.891         -62.2489        -115.891      -0.00670135         151.111
0.501                   -0.15349        -123.096         -62.0718        -117.663         -62.0719        -117.667      -0.00677818         151.046
0.502                  -0.161157        -123.543         -61.8931        -119.447         -61.8932        -119.456      -0.00685512          150.98
0.503                  -0.168975        -123.991         -61.7129        -121.245         -61.7131        -121.257      -0.00693219         150.915
0.504                  -0.176945        -124.441         -61.5311        -123.054         -61.5314        -123.071      -0.00700938          150.85
0.505                  -0.185066        -124.892          -61.348        -124.877         -61.3483        -124.897      -0.00708668         150.784
0.506                  -0.193342        -125.344         -61.1634        -126.713         -61.1638        -126.736      -0.00716412         150.718
0.507                  -0.201772        -125.799         -60.9775        -128.561          -60.978        -128.588      -0.00724167         150.653
0.508                  -0.210358        -126.255         -60.7904        -130.423          -60.791        -130.453      -0.00731936         150.587
0.509                  -0.219102        -126.712         -60.6022        -132.297         -60.6029         -132.33      -0.00739717         150.521
0.51                   -0.228004        -127.171         -60.4129        -134.185         -60.4136        -134.221      -0.00747512         150.455
0.511                  -0.237067        -127.632         -60.2225        -136.086         -60.2234        -136.124       -0.0075532         150.389
0.512                  -0.246292        -128.094         -60.0313            -138         -60.0323         -138.04      -0.00763142         150.323
0.513                   -0.25568        -128.558         -59.8392        -139.928         -59.8403         -139.97      -0.00770978         150.257
0.514                  -0.265232        -129.024         -59.6464        -141.868         -59.6476        -141.913      -0.00778829          150.19
0.515                  -0.274952        -129.491         -59.4529        -143.823         -59.4542        -143.869      -0.00786695         150.124
0.516                   -0.28484         -129.96         -59.2589         -145.79         -59.2603        -145.838      -0.00794576         150.058
0.517                  -0.294898        -130.431         -59.0644        -147.771          -59.066         -147.82      -0.00802474         149.991
0.518                  -0.305129        -130.903         -58.8696        -149.766         -58.8713        -149.815      -0.00810389         149.925
0.519                  -0.315533        -131.378         -58.6744        -151.773         -58.6763        -151.824      -0.00818321         149.858
0.52                   -0.326114        -131.854         -58.4792        -153.794         -58.4811        -153.845      -0.00826271         149.791
0.521                  -0.336874        -132.332         -58.2838        -155.828         -58.2859        -155.879      -0.00834241         149.724
0.522                  -0.347815        -132.812         -58.0885        -157.875         -58.0907        -157.926       -0.0084223         149.657
0.523                  -0.358938        -133.294         -57.8934        -159.934         -57.8957        -159.986      -0.00850239          149.59
0.524                  -0.370248        -133.778         -57.6985        -162.007         -57.7009        -162.058      -0.00858271         149.523
0.525                  -0.381746        -134.263         -57.5039        -164.092         -57.5065        -164.143      -0.00866325         149.456
0.526                  -0.393435        -134.751         -57.3098        -166.189         -57.3125         -166.24      -0.00874404         149.389
0.527                  -0.405317         -135.24         -57.1163        -168.298          -57.119        -168.348      -0.00882507         149.321
0.528                  -0.417397        -135.732         -56.9234        -170.419         -56.9262        -170.469      -0.00890637         149.254
0.529                  -0.429676        -136.226         -56.7313        -172.552         -56.7342          -172.6      -0.00898795         149.186
0.53                   -0.442159        -136.722           -56.54        -174.695          -56.543        -174.743      -0.00906982         149.118
0.531                  -0.454847        -137.219         -56.3497         -176.85         -56.3527        -176.896        -0.009152         149.051
0.532                  -0.467746        -137.719         -56.1605        -179.014         -56.1635        -179.059      -0.00923451         148.983
0.533                  -0.480858        -138.222         -55.9723         178.811         -55.9754         178.768      -0.00931736         148.915
0.534                  -0.494187        -138.726         -55.7854         176.627         -55.7886         176.585      -0.00940057         148.847
0.535                  -0.507738        -139.232         -55.5998         174.434          -55.603         174.394      -0.00948417         148.778
0.536                  -0.521513        -139.741         -55.4156         172.233         -55.4187         172.194      -0.00956818          148.71
0.537                  -0.535518        -140.252         -55.2328         170.024          -55.236         169.987      -0.00965262         148.642
0.538                  -0.549757        -140.766         -55.0516         167.807         -55.0547         167.772      -0.00973751         148.573
0.539                  -0.564234        -141.282         -54.8719         165.583          -54.875          165.55      -0.00982288         148.505
0.54                   -0.578954          -141.8         -54.6938         163.354         -54.6969         163.322      -0.00990876         148.436
0.541                  -0.593923         -142.32         -54.5175         161.118         -54.5204         161.089      -0.00999517         148.367
0.542                  -0.609145        -142.843         -54.3428         158.878         -54.3457         158.851       -0.0100821         148.298
0.543                  -0.624625        -143.369         -54.1699         156.634         -54.1727         156.608       -0.0101697         148.229
0.544                   -0.64037        -143.897         -53.9988         154.385         -54.0015         154.362       -0.0102579          148.16
0.545                  -0.656385        -144.427         -53.8295         152.134         -53.8321         152.112       -0.0103468         148.091
0.546                  -0.672676         -144.96         -53.6621          149.88         -53.6645          149.86       -0.0104364         148.021
0.547                  -0.689249        -145.496         -53.4964         147.625         -53.4988         147.607       -0.0105267         147.952
0.548                  -0.706112        -146.034         -53.3326         145.368         -53.3348         145.352       -0.0106179         147.882
0.549                   -0.72327        -146.575         -53.1706         143.111         -53.1727         143.096       -0.0107098         147.813
0.55                   -0.740731        -147.119         -53.0105         140.853         -53.0123         140.841       -0.0108026         147.743
0.551                  -0.758502        -147.666         -52.8521         138.597         -52.8538         138.586       -0.0108964         147.673
0.552                   -0.77659        -148.215         -52.6955         136.341          -52.697         136.332       -0.0109911         147.603
0.553                  -0.795004        -148.767         -52.5406         134.088         -52.5419          134.08       -0.0110869         147.532
0.554                  -0.813752        -149.322         -52.3874         131.836         -52.3885         131.829       -0.0111837         147.462
0.555                  -0.832842        -149.879         -52.2358         129.587         -52.2368         129.582       -0.0112817         147.392
0.556                  -0.852282         -150.44         -52.0859         127.342         -52.0867         127.338       -0.0113808         147.321
0.557                  -0.872083        -151.004         -51.9375           125.1         -51.9381         125.097       -0.0114812          147.25
0.558                  -0.892252         -151.57         -51.7906         122.862          -51.791          122.86        -0.011583          147.18
0.559                  -0.912801         -152.14         -51.6452         120.628         -51.6454         120.627       -0.0116861         147.109
0.56                   -0.933739        -152.712         -51.5011         118.399         -51.5011         118.398       -0.0117907         147.037
0.561                  -0.955077        -153.288         -51.3583         116.174         -51.3581         116.175       -0.0118968         146.966
0.562                  -0.976825        -153.867         -51.2168         113.955         -51.2164         113.957       -0.0120045         146.895
0.563                  -0.998994        -154.449         -51.0764         111.742         -51.0759         111.743       -0.0121139         146.823
0.564                    -1.0216        -155.034         -50.9372         109.533         -50.9365         109.536        -0.012225         146.752
0.565                   -1.04464        -155.622          -50.799         107.331         -50.7981         107.333       -0.0123379          146.68
0.566                   -1.06815        -156.213         -50.6618         105.134         -50.6607         105.137       -0.0124528         146.608
0.567                   -1.09212        -156.808         -50.5254         102.943         -50.5242         102.946       -0.0125696         146.536
0.568                   -1.11658        -157.406         -50.3899         100.758         -50.3886         100.761       -0.0126886         146.464
0.569                   -1.14153        -158.007         -50.2551         98.5782         -50.2537         98.5817       -0.0128097         146.391
0.57                      -1.167        -158.611         -50.1211         96.4045         -50.1195         96.4081        -0.012933         146.319
0.571                   -1.19299        -159.219         -49.9876         94.2365         -49.9859         94.2401       -0.0130587         146.246
0.572                   -1.21952         -159.83         -49.8547         92.0741         -49.8529         92.0777       -0.0131868         146.173
0.573                    -1.2466        -160.445         -49.7223         89.9172         -49.7205         89.9207       -0.0133174           146.1
0.574                   -1.27425        -161.062         -49.5904         87.7657         -49.5884          87.769       -0.0134506         146.027
0.575                   -1.30249        -161.684         -49.4588         85.6193         -49.4568         85.6224       -0.0135865         145.954
0.576                   -1.33133        -162.308         -49.3276         83.4778         -49.3255         83.4807       -0.0137252         145.881
0.577                   -1.36079        -162.936         -49.1966         81.3411         -49.1945         81.3438       -0.0138668         145.807
0.578                   -1.39088        -163.567         -49.0659         79.2089         -49.0637         79.2113       -0.0140114         145.733
0.579                   -1.42163        -164.202         -48.9353          77.081         -48.9331         77.0831        -0.014159         145.659
0.58                    -1.45304        -164.839         -48.8049         74.9572         -48.8027          74.959       -0.0143098         145.585
0.581                   -1.48515        -165.481         -48.6746          72.837         -48.6724         72.8385       -0.0144638         145.511
0.582                   -1.51796        -166.125         -48.5444         70.7204         -48.5421         70.7216       -0.0146211         145.437
0.583                    -1.5515        -166.773         -48.4142         68.6069         -48.4119         68.6078       -0.0147818         145.362
0.584                   -1.58579        -167.424          -48.284         66.4963         -48.2817         66.4968        -0.014946         145.288
0.585                   -1.62084        -168.078         -48.1538         64.3883         -48.1515         64.3885       -0.0151138         145.213
0.586                   -1.65667        -168.736         -48.0235         62.2826         -48.0213         62.2825       -0.0152852         145.138
0.587                   -1.69331        -169.397         -47.8932         60.1789          -47.891         60.1785       -0.0154602         145.062
0.588                   -1.73076        -170.061         -47.7628         58.0768         -47.7607         58.0761       -0.0156391         144.987
0.589                   -1.76907        -170.727         -47.6323         55.9761         -47.6303         55.9752       -0.0158218         144.912
0.59                    -1.80823        -171.397         -47.5018         53.8765         -47.4997         53.8753       -0.0160083         144.836
0.591                   -1.84828         -172.07         -47.3711         51.7777         -47.3691         51.7763       -0.0161988          144.76
0.592                   -1.88924        -172.746         -47.2403         49.6794         -47.2384         49.6777       -0.0163933         144.684
0.593                   -1.93111        -173.425         -47.1095         47.5813         -47.1076         47.5794       -0.0165917         144.608
0.594                   -1.97394        -174.106         -46.9785         45.4831         -46.9767         45.4811       -0.0167943         144.531
0.595                   -2.01772         -174.79         -46.8474         43.3846         -46.8457         43.3824       -0.0170009         144.455
0.596                   -2.06249        -175.476         -46.7163         41.2855         -46.7147         41.2832       -0.0172116         144.378
0.597                   -2.10826        -176.165         -46.5851         39.1856         -46.5835         39.1831       -0.0174264         144.301
0.598                   -2.15504        -176.857         -46.4538         37.0846         -46.4523         37.0821       -0.0176454         144.224
0.599                   -2.20287         -177.55         -46.3224         34.9824          -46.321         34.9798       -0.0178685         144.147
0.6                     -2.25176        -178.246         -46.1911         32.8786         -46.1897          32.876       -0.0180958         144.069
0.601                   -2.30172        -178.944         -46.0597         30.7732         -46.0584         30.7706       -0.0183272         143.991
0.602                   -2.35277        -179.643         -45.9283         28.6659         -45.9271         28.6633       -0.0185627         143.914
0.603                   -2.40493         179.656         -45.7969         26.5567         -45.7958          26.554       -0.0188023         143.836
0.604                   -2.45821         178.953         -45.6656         24.4452         -45.6646         24.4426       -0.0190461         143.757
0.605                   -2.51262         178.249         -45.5344         22.3315         -45.5334          22.329       -0.0192939         143.679
0.606                   -2.56818         177.543         -45.4033         20.2154         -45.4024         20.2129       -0.0195458           143.6
0.607                    -2.6249         176.837         -45.2722         18.0968         -45.2714         18.0944       -0.0198017         143.521
0.608                   -2.68279         176.129         -45.1413         15.9755         -45.1406         15.9732       -0.0200616         143.442
0.609                   -2.74186         175.421         -45.0106         13.8517         -45.0099         13.8495       -0.0203255         143.363
0.61                    -2.80212         174.712         -44.8801         11.7251         -44.8795         11.7231       -0.0205933         143.284
0.611                   -2.86357         174.003         -44.7498         9.59585         -44.7492          9.5939       -0.0208651         143.204
0.612                   -2.92622         173.294         -44.6198         7.46382         -44.6192         7.46201       -0.0211407         143.124
0.613                   -2.99007         172.584           -44.49         5.32905         -44.4895         5.32738       -0.0214201         143.044
0.614                   -3.05513         171.875         -44.3605         3.19154         -44.3601         3.19002       -0.0217034         142.964
0.615                   -3.12139         171.166         -44.2313         1.05133          -44.231         1.04997       -0.0219905         142.883
0.616                   -3.18886         170.457         -44.1025        -1.09154         -44.1022        -1.09275       -0.0222813         142.802
0.617                   -3.25752         169.749          -43.974        -3.23701         -43.9737        -3.23807       -0.0225758         142.721
0.618                   -3.32738         169.042          -43.846        -5.38502         -43.8457        -5.38592       -0.0228741          142.64
0.619                   -3.39842         168.336         -43.7183        -7.53549          -43.718        -7.53623       -0.0231762         142.559
0.62                    -3.47065         167.632          -43.591        -9.68832         -43.5908        -9.68891       -0.0234819         142.477
0.621                   -3.54404         166.928         -43.4642        -11.8434          -43.464        -11.8439       -0.0237913         142.395
0.622                    -3.6186         166.226         -43.3378        -14.0007         -43.3376         -14.001       -0.0241045         142.313
0.623                    -3.6943         165.526         -43.2118          -16.16         -43.2117        -16.1601       -0.0244214         142.231
0.624                   -3.77113         164.827         -43.0864        -18.3212         -43.0863        -18.3212        -0.024742         142.148
0.625                   -3.84908         164.131         -42.9614        -20.4841         -42.9613        -20.4841       -0.0250665         142.065
0.626                   -3.92813         163.436         -42.8369        -22.6488         -42.8368        -22.6486       -0.0253948         141.982
0.627                   -4.00825         162.743         -42.7129        -24.8149         -42.7128        -24.8146       -0.0257269         141.898
0.628                   -4.08944         162.053         -42.5893        -26.9825         -42.5893        -26.9821        -0.026063         141.815
0.629                   -4.17168         161.365         -42.4663        -29.1512         -42.4663        -29.1507        -0.026403         141.731
0.63                    -4.25493         160.679         -42.3437        -31.3211         -42.3437        -31.3205       -0.0267472         141.646
0.631                   -4.33919         159.995         -42.2217        -33.4919         -42.2217        -33.4913       -0.0270954         141.562
0.632                   -4.42443         159.314         -42.1001        -35.6635         -42.1001        -35.6628        -0.027448         141.477
0.633                   -4.51064         158.635          -41.979        -37.8358          -41.979        -37.8351       -0.0278049         141.392
0.634                   -4.59779         157.959         -41.8583        -40.0087         -41.8583         -40.008       -0.0281663         141.307
0.635                   -4.68586         157.284         -41.7382         -42.182         -41.7381        -42.1813       -0.0285322         141.221
0.636                   -4.77484         156.612         -41.6184        -44.3557         -41.6184        -44.3549        -0.028903         141.135
0.637                   -4.86471         155.942         -41.4991        -46.5296         -41.4991        -46.5287       -0.0292786         141.049
0.638                   -4.95546         155.274         -41.3802        -48.7035         -41.3802        -48.7027       -0.0296592         140.962
0.639                   -5.04707         154.608         -41.2617        -50.8775         -41.2617        -50.8767       -0.0300451         140.875
0.64                    -5.13953         153.944         -41.1435        -53.0515         -41.1435        -53.0507       -0.0304364         140.788
0.641                   -5.23283         153.282         -41.0258        -55.2253         -41.0258        -55.2245       -0.0308333         140.701
0.642                   -5.32698         152.621         -40.9083        -57.3989         -40.9083        -57.3982        -0.031236         140.613
0.643                   -5.42195         151.961         -40.7912        -59.5723         -40.7912        -59.5716       -0.0316447         140.525
0.644                   -5.51777         151.303         -40.6744        -61.7455         -40.6744        -61.7447       -0.0320596         140.436
0.645                   -5.61442         150.645         -40.5579        -63.9183         -40.5579        -63.9176       -0.0324811         140.347
0.646                   -5.71193         149.988         -40.4416        -66.0908         -40.4416        -66.0902       -0.0329092         140.258
0.647                   -5.81029         149.332         -40.3256         -68.263         -40.3256        -68.2624       -0.0333444         140.168
0.648                   -5.90953         148.676         -40.2097        -70.4349         -40.2097        -70.4344       -0.0337868         140.079
0.649                   -6.00968          148.02         -40.0941        -72.6066         -40.0941         -72.606       -0.0342368         139.988
0.65                    -6.11075         147.364         -39.9787         -74.778         -39.9786        -74.7775       -0.0346945         139.898
0.651                   -6.21277         146.707         -39.8634        -76.9492         -39.8633        -76.9487       -0.0351605         139.807
0.652                   -6.31579          146.05         -39.7482        -79.1202         -39.7482        -79.1198       -0.0356348         139.715
0.653                   -6.41984         145.392         -39.6331        -81.2912         -39.6331        -81.2909       -0.0361179         139.623
0.654                   -6.52498         144.733         -39.5182        -83.4622         -39.5182        -83.4619       -0.0366101         139.531
0.655                   -6.63125         144.072         -39.4033        -85.6333         -39.4033        -85.6331       -0.0371118         139.439
0.656                   -6.73871          143.41         -39.2885        -87.8047         -39.2885        -87.8044       -0.0376232         139.346
0.657                   -6.84743         142.746         -39.1737        -89.9763         -39.1737        -89.9761       -0.0381447         139.252
0.658                   -6.95748          142.08          -39.059        -92.1484          -39.059        -92.1482       -0.0386768         139.159
0.659                   -7.06893         141.411         -38.9443         -94.321         -38.9442        -94.3209       -0.0392197         139.064
0.66                    -7.18187         140.741         -38.8296        -96.4943         -38.8295        -96.4942       -0.0397739          138.97
0.661                   -7.29639         140.068         -38.7149        -98.6684         -38.7149        -98.6684       -0.0403397         138.875
0.662                   -7.41257         139.393         -38.6002        -100.844         -38.6002        -100.843       -0.0409175         138.779
0.663                   -7.53053         138.715         -38.4855         -103.02         -38.4855         -103.02       -0.0415078         138.683
0.664                   -7.65036         138.035         -38.3708        -105.197         -38.3708        -105.197       -0.0421109         138.587
0.665                   -7.77218         137.352         -38.2561        -107.376         -38.2561        -107.376       -0.0427272          138.49
0.666                   -7.89611         136.667         -38.1414        -109.557         -38.1414        -109.557       -0.0433572         138.393
0.667                   -8.02228         135.979         -38.0266        -111.739         -38.0266        -111.739       -0.0440012         138.295
0.668                   -8.15082         135.289         -37.9119        -113.923         -37.9119        -113.923       -0.0446597         138.197
0.669                   -8.28187         134.597         -37.7972        -116.109         -37.7972         -116.11        -0.045333         138.098
0.67                    -8.41557         133.903         -37.6825        -118.298         -37.6825        -118.298       -0.0460217         137.999
0.671                   -8.55207         133.207         -37.5679        -120.489         -37.5678        -120.489        -0.046726         137.899
0.672                   -8.69154         132.511         -37.4532        -122.682         -37.4532        -122.682       -0.0474464         137.799
0.673                   -8.83413         131.813         -37.3387        -124.878         -37.3386        -124.878       -0.0481834         137.698
0.674                   -8.98001         131.116         -37.2242        -127.077         -37.2241        -127.077       -0.0489372         137.597
0.675                   -9.12937         130.419         -37.1098        -129.279         -37.1097        -129.279       -0.0497083         137.495
0.676                   -9.28238         129.723         -36.9955        -131.483         -36.9955        -131.483        -0.050497         137.393
0.677                   -9.43924          129.03         -36.8813        -133.691         -36.8813        -133.691       -0.0513038         137.291
0.678                   -9.60012         128.339         -36.7674        -135.902         -36.7673        -135.902       -0.0521289         137.187
0.679                   -9.76525         127.652         -36.6536        -138.117         -36.6535        -138.117       -0.0529727         137.084
0.68                    -9.93481          126.97           -36.54        -140.335           -36.54        -140.335       -0.0538356         136.979
0.681                    -10.109         126.294         -36.4267        -142.556         -36.4266        -142.556       -0.0547178         136.874
0.682                   -10.2881         125.626         -36.3136        -144.781         -36.3136        -144.781       -0.0556196         136.769
0.683                   -10.4722         124.967         -36.2009         -147.01         -36.2008         -147.01       -0.0565414         136.663
0.684                   -10.6617          124.32         -36.0885        -149.242         -36.0884        -149.242       -0.0574833         136.556
0.685                   -10.8566         123.685         -35.9764        -151.477         -35.9764        -151.478       -0.0584457         136.449
0.686                   -11.0573         123.066         -35.8648        -153.717         -35.8647        -153.717       -0.0594286         136.342
0.687                    -11.264         122.464         -35.7536         -155.96         -35.7535         -155.96       -0.0604324         136.233
0.688                   -11.4768         121.883         -35.6429        -158.206         -35.6428        -158.206       -0.0614571         136.124
0.689                   -11.6961         121.325         -35.5327        -160.456         -35.5326        -160.456        -0.062503         136.015
0.69                    -11.9219         120.793          -35.423        -162.709          -35.423        -162.709       -0.0635701         135.905
0.691                   -12.1546         120.291         -35.3139        -164.966         -35.3139        -164.966       -0.0646586         135.794
0.692                   -12.3942         119.823         -35.2055        -167.226         -35.2054        -167.226       -0.0657686         135.682
0.693                   -12.6409         119.393         -35.0977        -169.488         -35.0976        -169.488       -0.0669001          135.57
0.694                   -12.8949         119.006         -34.9905        -171.754         -34.9905        -171.754       -0.0680532         135.458
0.695                   -13.1563         118.667         -34.8841        -174.022          -34.884        -174.022       -0.0692279         135.344
0.696                   -13.4251         118.382         -34.7784        -176.293         -34.7783        -176.293       -0.0704242          135.23
0.697                   -13.7013         118.157         -34.6734        -178.566         -34.6734        -178.566       -0.0716423         135.115