! TOUCHSTONE file generated by CST MICROWAVE STUDIO
! Date and time: Fri Oct  2 19:12:55 2020
! Project name: Scenario_1_Free_Space_out_of_line.cst
! Parameters = {Lambda=346.42; Step_1=17.321; dy1=0.82; dx1=866; L_HA=400; MT=2.54; Rad_Dielectric=30; Rad_Lower=7.3; Rad_Upper=30; a_HA=580; a_WG=246; b_HA=500; b_WG=121; c_HA=0; c_WG=187; d_feed=85; h_feed=15; h_lower=18; h_upper=40}
! Header version: 2018
! Port assignment regex: !\s*Touchstone port\s*([0-9]+)\s*=\s*(CST MWS port|CST DS port)\s*([0-9]+|Zmin|Zmax)\s*\(\"(.*)\"\)(\s*mode\s*([0-9]+))?.*
! Touchstone port assignment:
! Touchstone port 1 = CST MWS port 1 ("")
! Touchstone port 2 = CST MWS port 2 ("")
# GHz S DB R 50
0.5                    -0.149032        -122.615         -62.9995          143.83         -62.9995          143.83      -0.00659078         151.141
0.501                  -0.155076         -123.07          -62.812         141.719         -62.8116          141.72      -0.00665822         151.076
0.502                  -0.161344        -123.526         -62.6235         139.605         -62.6228         139.606      -0.00672657         151.011
0.503                  -0.167838        -123.984          -62.434         137.488          -62.433          137.49      -0.00679583         150.945
0.504                   -0.17456        -124.444         -62.2437         135.367         -62.2424          135.37      -0.00686602         150.879
0.505                  -0.181512        -124.905         -62.0526         133.243          -62.051         133.246      -0.00693714         150.814
0.506                  -0.188695        -125.368         -61.8608         131.115         -61.8589         131.119      -0.00700918         150.748
0.507                  -0.196113        -125.833         -61.6684         128.982         -61.6662         128.987      -0.00708216         150.682
0.508                  -0.203766        -126.299         -61.4753         126.845         -61.4729          126.85      -0.00715607         150.616
0.509                  -0.211657        -126.767         -61.2818         124.703         -61.2792         124.708      -0.00723091          150.55
0.51                   -0.219788        -127.237         -61.0878         122.555          -61.085         122.561       -0.0073067         150.484
0.511                  -0.228161        -127.708         -60.8934         120.402         -60.8905         120.409      -0.00738344         150.418
0.512                  -0.236777        -128.181         -60.6988         118.243         -60.6956          118.25      -0.00746112         150.352
0.513                  -0.245639        -128.656         -60.5038         116.078         -60.5005         116.085      -0.00753975         150.285
0.514                  -0.254748        -129.132         -60.3087         113.906         -60.3053         113.914      -0.00761934         150.219
0.515                  -0.264107         -129.61         -60.1135         111.728         -60.1099         111.736      -0.00769988         150.153
0.516                  -0.273718         -130.09         -59.9182         109.542         -59.9146         109.551      -0.00778139         150.086
0.517                  -0.283582        -130.571         -59.7229          107.35         -59.7192         107.358      -0.00786387         150.019
0.518                  -0.293701        -131.055         -59.5277          105.15         -59.5239         105.158      -0.00794731         149.953
0.519                  -0.304078         -131.54         -59.3327         102.942         -59.3287         102.951      -0.00803173         149.886
0.52                   -0.314714        -132.026         -59.1378         100.726         -59.1338         100.735      -0.00811712         149.819
0.521                  -0.325611        -132.514         -58.9432         98.5021         -58.9391         98.5111      -0.00820349         149.752
0.522                  -0.336771        -133.004         -58.7488         96.2699         -58.7448          96.279      -0.00829085         149.685
0.523                  -0.348197        -133.496         -58.5549         94.0293         -58.5508         94.0383      -0.00837919         149.618
0.524                  -0.359889         -133.99         -58.3614           91.78         -58.3573          91.789      -0.00846853          149.55
0.525                  -0.371851        -134.485         -58.1684         89.5219         -58.1643         89.5309      -0.00855887         149.483
0.526                  -0.384083        -134.982          -57.976          87.255         -57.9719         87.2639       -0.0086502         149.416
0.527                  -0.396588         -135.48         -57.7842         84.9791         -57.7802         84.9879      -0.00874254         149.348
0.528                  -0.409368        -135.981         -57.5931         82.6942         -57.5891         82.7028      -0.00883589         149.281
0.529                  -0.422425        -136.483         -57.4027         80.4002         -57.3987         80.4087      -0.00893025         149.213
0.53                    -0.43576        -136.987         -57.2132         78.0972         -57.2092         78.1054      -0.00902562         149.145
0.531                  -0.449376        -137.492         -57.0245          75.785         -57.0205          75.793      -0.00912202         149.077
0.532                  -0.463274            -138         -56.8367         73.4637         -56.8328         73.4715      -0.00921944         149.009
0.533                  -0.477457        -138.509         -56.6498         71.1334          -56.646          71.141      -0.00931789         148.941
0.534                  -0.491926         -139.02          -56.464         68.7942         -56.4603         68.8014      -0.00941738         148.873
0.535                  -0.506683        -139.533         -56.2793          66.446         -56.2756          66.453       -0.0095179         148.805
0.536                  -0.521731        -140.047         -56.0957         64.0891         -56.0921         64.0958      -0.00961946         148.736
0.537                  -0.537071        -140.564         -55.9133         61.7235         -55.9098         61.7299      -0.00972207         148.668
0.538                  -0.552705        -141.082         -55.7321         59.3494         -55.7287         59.3555      -0.00982573         148.599
0.539                  -0.568635        -141.602         -55.5522         56.9671         -55.5488         56.9728      -0.00993045         148.531
0.54                   -0.584863        -142.124         -55.3736         54.5766         -55.3703          54.582       -0.0100362         148.462
0.541                  -0.601392        -142.648         -55.1963         52.1782         -55.1932         52.1833       -0.0101431         148.393
0.542                  -0.618223        -143.173         -55.0205         49.7722         -55.0174          49.777        -0.010251         148.324
0.543                  -0.635358        -143.701          -54.846         47.3589         -54.8431         47.3633       -0.0103599         148.255
0.544                    -0.6528         -144.23         -54.6731         44.9384         -54.6703         44.9425         -0.01047         148.186
0.545                   -0.67055        -144.761         -54.5016         42.5111         -54.4989          42.515       -0.0105811         148.117
0.546                   -0.68861        -145.294         -54.3317         40.0774         -54.3291         40.0809       -0.0106934         148.047
0.547                  -0.706984        -145.829         -54.1633         37.6375         -54.1609         37.6407       -0.0108067         147.978
0.548                  -0.725672        -146.366         -53.9965         35.1919         -53.9942         35.1948       -0.0109211         147.908
0.549                  -0.744677        -146.905         -53.8313         32.7407         -53.8291         32.7434       -0.0110366         147.839
0.55                   -0.764002        -147.446         -53.6677         30.2845         -53.6656         30.2869       -0.0111532         147.769
0.551                  -0.783649        -147.989         -53.5057         27.8236         -53.5037         27.8258       -0.0112709         147.699
0.552                   -0.80362        -148.534         -53.3453         25.3584         -53.3434         25.3603       -0.0113897         147.629
0.553                  -0.823918        -149.081         -53.1865         22.8893         -53.1848          22.891       -0.0115096         147.559
0.554                  -0.844544         -149.63         -53.0294         20.4167         -53.0277         20.4181       -0.0116307         147.488
0.555                  -0.865502        -150.181         -52.8739         17.9409         -52.8723         17.9422       -0.0117529         147.418
0.556                  -0.886795        -150.734           -52.72         15.4624         -52.7185         15.4635       -0.0118762         147.347
0.557                  -0.908424        -151.289         -52.5677         12.9816         -52.5664         12.9825       -0.0120006         147.277
0.558                  -0.930394        -151.847          -52.417         10.4988         -52.4157         10.4996       -0.0121261         147.206
0.559                  -0.952705        -152.406         -52.2678         8.01447         -52.2667         8.01511       -0.0122528         147.135
0.56                   -0.975363        -152.968         -52.1202         5.52899         -52.1192         5.52951       -0.0123807         147.064
0.561                  -0.998369        -153.532         -51.9741         3.04271         -51.9732         3.04314       -0.0125097         146.993
0.562                   -1.02173        -154.098         -51.8296        0.556016         -51.8287        0.556353       -0.0126398         146.922
0.563                   -1.04544        -154.666         -51.6864        -1.93075         -51.6857        -1.93049       -0.0127711          146.85
0.564                   -1.06951        -155.237         -51.5448        -4.41725         -51.5441        -4.41705       -0.0129036         146.779
0.565                   -1.09395         -155.81         -51.4045        -6.90315         -51.4039        -6.90299       -0.0130372         146.707
0.566                   -1.11875        -156.385         -51.2656        -9.38813         -51.2651        -9.38801        -0.013172         146.635
0.567                   -1.14392        -156.963          -51.128        -11.8719         -51.1276        -11.8718       -0.0133079         146.563
0.568                   -1.16947        -157.543         -50.9917        -14.3542         -50.9913        -14.3541        -0.013445         146.491
0.569                    -1.1954        -158.126         -50.8566        -16.8347         -50.8563        -16.8346       -0.0135833         146.419
0.57                    -1.22171        -158.711         -50.7227        -19.3132         -50.7225        -19.3131       -0.0137228         146.347
0.571                   -1.24841        -159.299           -50.59        -21.7894         -50.5898        -21.7893       -0.0138635         146.274
0.572                    -1.2755        -159.889         -50.4583        -24.2632         -50.4582        -24.2631       -0.0140054         146.202
0.573                   -1.30299        -160.482         -50.3278        -26.7344         -50.3277        -26.7342       -0.0141485         146.129
0.574                   -1.33089        -161.077         -50.1982        -29.2027         -50.1982        -29.2026       -0.0142928         146.056
0.575                    -1.3592        -161.676         -50.0696        -31.6681         -50.0696        -31.6679       -0.0144383         145.983
0.576                   -1.38792        -162.277         -49.9419        -34.1304         -49.9419        -34.1301        -0.014585          145.91
0.577                   -1.41707        -162.881          -49.815        -36.5895         -49.8151        -36.5891        -0.014733         145.836
0.578                   -1.44666        -163.488          -49.689        -39.0452         -49.6891        -39.0448       -0.0148822         145.763
0.579                   -1.47668        -164.097         -49.5637        -41.4975         -49.5639        -41.4971       -0.0150327         145.689
0.58                    -1.50715         -164.71         -49.4392        -43.9464         -49.4393         -43.946       -0.0151844         145.615
0.581                   -1.53808        -165.326         -49.3153        -46.3918         -49.3155        -46.3913       -0.0153375         145.541
0.582                   -1.56947        -165.945         -49.1921        -48.8337         -49.1923        -48.8331       -0.0154919         145.467
0.583                   -1.60134        -166.567         -49.0694         -51.272         -49.0696        -51.2714       -0.0156476         145.393
0.584                   -1.63369        -167.193         -48.9473        -53.7068         -48.9475        -53.7061       -0.0158046         145.319
0.585                   -1.66655        -167.821         -48.8257         -56.138         -48.8259        -56.1373       -0.0159631         145.244
0.586                   -1.69991        -168.453         -48.7046        -58.5658         -48.7048        -58.5651        -0.016123         145.169
0.587                    -1.7338        -169.089         -48.5838        -60.9902          -48.584        -60.9894       -0.0162844         145.094
0.588                   -1.76822        -169.728         -48.4635        -63.4112         -48.4637        -63.4104       -0.0164473         145.019
0.589                   -1.80319         -170.37         -48.3435        -65.8289         -48.3437         -65.828       -0.0166118         144.944
0.59                    -1.83872        -171.017         -48.2239        -68.2433          -48.224        -68.2425       -0.0167779         144.868
0.591                   -1.87484        -171.666         -48.1045        -70.6547         -48.1047        -70.6538       -0.0169458         144.793
0.592                   -1.91156         -172.32         -47.9854         -73.063         -47.9855        -73.0621       -0.0171154         144.717
0.593                    -1.9489        -172.978         -47.8665        -75.4684         -47.8667        -75.4675       -0.0172869         144.641
0.594                   -1.98687         -173.64         -47.7478         -77.871          -47.748        -77.8701       -0.0174603         144.564
0.595                    -2.0255        -174.305         -47.6294         -80.271         -47.6295          -80.27       -0.0176358         144.488
0.596                   -2.06482        -174.975         -47.5111        -82.6684         -47.5112        -82.6674       -0.0178135         144.411
0.597                   -2.10483        -175.649         -47.3929        -85.0633          -47.393        -85.0624       -0.0179936         144.335
0.598                   -2.14558        -176.327         -47.2748         -87.456         -47.2749        -87.4551       -0.0181761         144.258
0.599                   -2.18709        -177.009         -47.1569        -89.8466          -47.157        -89.8457       -0.0183612          144.18
0.6                     -2.22938        -177.696         -47.0391        -92.2352         -47.0391        -92.2343       -0.0185492         144.103
0.601                   -2.27248        -178.388         -46.9214        -94.6219         -46.9214         -94.621       -0.0187401         144.025
0.602                   -2.31643        -179.083         -46.8037        -97.0069         -46.8037        -97.0061       -0.0189342         143.948
0.603                   -2.36126        -179.784         -46.6861        -99.3904         -46.6861        -99.3896       -0.0191317          143.87
0.604                   -2.40701         179.511         -46.5686        -101.772         -46.5686        -101.772       -0.0193328         143.791
0.605                   -2.45371         178.802         -46.4512        -104.153         -46.4511        -104.153       -0.0195378         143.713
0.606                   -2.50141         178.087         -46.3338        -106.533         -46.3337        -106.532       -0.0197467         143.634
0.607                   -2.55013         177.368         -46.2165        -108.912         -46.2164        -108.911         -0.01996         143.555
0.608                   -2.59994         176.644         -46.0993        -111.289         -46.0992        -111.289       -0.0201778         143.476
0.609                   -2.65087         175.916         -45.9821        -113.667          -45.982        -113.666       -0.0204003         143.397
0.61                    -2.70297         175.183          -45.865        -116.043         -45.8649        -116.042       -0.0206277         143.317
0.611                   -2.75628         174.445          -45.748        -118.419         -45.7478        -118.419       -0.0208603         143.238
0.612                   -2.81087         173.703         -45.6311        -120.795         -45.6309        -120.794       -0.0210983         143.158
0.613                   -2.86679         172.956         -45.5142         -123.17         -45.5141         -123.17       -0.0213417         143.077
0.614                   -2.92408         172.204         -45.3975        -125.545         -45.3973        -125.545       -0.0215908         142.997
0.615                   -2.98281         171.449         -45.2809        -127.921         -45.2807         -127.92       -0.0218456         142.916
0.616                   -3.04303         170.689         -45.1644        -130.296         -45.1642        -130.296       -0.0221063         142.835
0.617                    -3.1048         169.925         -45.0481        -132.671         -45.0479        -132.671       -0.0223728         142.754
0.618                   -3.16818         169.157         -44.9319        -135.047         -44.9317        -135.047       -0.0226453         142.673
0.619                   -3.23323         168.386         -44.8159        -137.423         -44.8156        -137.422       -0.0229238         142.591
0.62                    -3.30002         167.611            -44.7        -139.799         -44.6998        -139.799       -0.0232081         142.509
0.621                   -3.36859         166.833         -44.5844        -142.175         -44.5841        -142.175       -0.0234982         142.427
0.622                   -3.43902         166.053          -44.469        -144.552         -44.4687        -144.552       -0.0237941         142.345
0.623                   -3.51135          165.27         -44.3538        -146.929         -44.3535        -146.929       -0.0240957         142.262
0.624                   -3.58564         164.485         -44.2388        -149.307         -44.2385        -149.307       -0.0244029         142.179
0.625                   -3.66195         163.699         -44.1241        -151.685         -44.1238        -151.685       -0.0247155         142.096
0.626                   -3.74033         162.912         -44.0096        -154.064         -44.0094        -154.064       -0.0250335         142.013
0.627                   -3.82081         162.124         -43.8955        -156.443         -43.8952        -156.443       -0.0253567         141.929
0.628                   -3.90344         161.336         -43.7816        -158.822         -43.7814        -158.823        -0.025685         141.845
0.629                   -3.98826         160.549         -43.6681        -161.202         -43.6679        -161.203       -0.0260183         141.761
0.63                     -4.0753         159.763         -43.5549        -163.583         -43.5547        -163.583       -0.0263566         141.676
0.631                   -4.16456          158.98          -43.442        -165.964         -43.4418        -165.964       -0.0266996         141.592
0.632                   -4.25608         158.199         -43.3295        -168.345         -43.3293        -168.345       -0.0270475         141.507
0.633                   -4.34986         157.421         -43.2173        -170.726         -43.2171        -170.726       -0.0274001         141.422
0.634                   -4.44589         156.647         -43.1056        -173.107         -43.1054        -173.107       -0.0277573         141.336
0.635                   -4.54416         155.878         -42.9941        -175.489          -42.994        -175.489       -0.0281193          141.25
0.636                   -4.64464         155.114         -42.8831        -177.871          -42.883        -177.871        -0.028486         141.164
0.637                   -4.74731         154.357         -42.7725         179.748         -42.7723         179.748       -0.0288574         141.078
0.638                   -4.85213         153.607         -42.6623         177.366         -42.6621         177.366       -0.0292336         140.991
0.639                   -4.95903         152.864         -42.5525         174.984         -42.5523         174.984       -0.0296147         140.904
0.64                    -5.06797         152.129         -42.4431         172.603          -42.443         172.603       -0.0300007         140.817
0.641                   -5.17887         151.403         -42.3341         170.222          -42.334         170.222       -0.0303917         140.729
0.642                   -5.29165         150.686         -42.2255         167.842         -42.2254         167.842       -0.0307879         140.641
0.643                   -5.40622         149.979         -42.1174         165.462         -42.1173         165.462       -0.0311894         140.553
0.644                    -5.5225         149.282         -42.0096         163.083         -42.0095         163.083       -0.0315963         140.464
0.645                   -5.64038         148.596         -41.9022         160.704         -41.9022         160.704       -0.0320089         140.375
0.646                   -5.75976         147.921         -41.7953         158.326         -41.7952         158.327       -0.0324272         140.286
0.647                   -5.88054         147.257         -41.6887         155.949         -41.6887          155.95       -0.0328515         140.196
0.648                   -6.00261         146.605         -41.5825         153.573         -41.5825         153.574       -0.0332819         140.106
0.649                   -6.12586         145.963         -41.4767         151.198         -41.4767         151.199       -0.0337188         140.015
0.65                     -6.2502         145.333         -41.3713         148.825         -41.3713         148.825       -0.0341622         139.925
0.651                   -6.37551         144.714         -41.2662         146.452         -41.2662         146.453       -0.0346125         139.834
0.652                   -6.50172         144.106         -41.1614         144.081         -41.1614         144.082       -0.0350698         139.742
0.653                   -6.62871         143.509          -41.057         141.711          -41.057         141.712       -0.0355345          139.65
0.654                   -6.75642         142.923         -40.9529         139.343         -40.9529         139.344       -0.0360067         139.558
0.655                   -6.88477         142.347          -40.849         136.976         -40.8491         136.977       -0.0364868         139.465
0.656                   -7.01368          141.78         -40.7455          134.61         -40.7455         134.612       -0.0369751         139.372
0.657                   -7.14312         141.223         -40.6421         132.247         -40.6422         132.248       -0.0374718         139.278
0.658                   -7.27302         140.675         -40.5391         129.885         -40.5391         129.886       -0.0379772         139.184
0.659                   -7.40336         140.135         -40.4362         127.524         -40.4362         127.525       -0.0384917          139.09
0.66                    -7.53411         139.603         -40.3335         125.165         -40.3336         125.167       -0.0390156         138.995
0.661                   -7.66526         139.079          -40.231         122.808         -40.2311         122.809       -0.0395491           138.9
0.662                   -7.79681         138.561         -40.1287         120.452         -40.1287         120.454       -0.0400928         138.804
0.663                   -7.92876          138.05         -40.0264         118.098         -40.0265           118.1       -0.0406469         138.708
0.664                   -8.06115         137.544         -39.9243         115.746         -39.9244         115.748       -0.0412117         138.611
0.665                     -8.194         137.044         -39.8222         113.395         -39.8223         113.397       -0.0417878         138.514
0.666                   -8.32734         136.549         -39.7202         111.046         -39.7203         111.048       -0.0423754         138.417
0.667                   -8.46123         136.059         -39.6183         108.699         -39.6184         108.701        -0.042975         138.319
0.668                   -8.59574         135.573         -39.5163         106.353         -39.5164         106.355        -0.043587          138.22
0.669                   -8.73091         135.091         -39.4144         104.008         -39.4145          104.01       -0.0442119         138.121
0.67                    -8.86683         134.612         -39.3124         101.665         -39.3125         101.667       -0.0448501         138.022
0.671                   -9.00358         134.137         -39.2103         99.3227         -39.2104         99.3247        -0.045502         137.922
0.672                   -9.14124         133.665         -39.1082         96.9817         -39.1083         96.9838       -0.0461681         137.821
0.673                    -9.2799         133.196          -39.006         94.6419         -39.0061         94.6439        -0.046849          137.72
0.674                   -9.41967          132.73         -38.9037         92.3029         -38.9037          92.305       -0.0475452         137.618
0.675                   -9.56065         132.268         -38.8012         89.9648         -38.8013         89.9669       -0.0482571         137.516
0.676                   -9.70293         131.808         -38.6986         87.6273         -38.6986         87.6295       -0.0489853         137.413
0.677                   -9.84664         131.352         -38.5958         85.2905         -38.5958         85.2926       -0.0497304          137.31
0.678                   -9.99188         130.899         -38.4928          82.954         -38.4929         82.9561        -0.050493         137.206
0.679                   -10.1388         130.451         -38.3896         80.6178         -38.3897         80.6199       -0.0512736         137.102
0.68                    -10.2874         130.006         -38.2862         78.2817         -38.2863         78.2838       -0.0520728         136.997
0.681                    -10.438         129.566         -38.1826         75.9456         -38.1827         75.9477       -0.0528913         136.891
0.682                   -10.5905         129.131         -38.0788         73.6092         -38.0788         73.6113       -0.0537297         136.785
0.683                   -10.7452         128.701         -37.9747         71.2725         -37.9747         71.2745       -0.0545887         136.678
0.684                   -10.9021         128.278         -37.8703         68.9352         -37.8704         68.9372       -0.0554689         136.571
0.685                   -11.0614         127.862         -37.7657         66.5971         -37.7658         66.5991        -0.056371         136.463
0.686                   -11.2233         127.453         -37.6609         64.2582         -37.6609         64.2601       -0.0572957         136.354
0.687                   -11.3877         127.053         -37.5558         61.9181         -37.5558           61.92       -0.0582438         136.245
0.688                   -11.5549         126.663         -37.4504         59.5767         -37.4504         59.5786       -0.0592158         136.135
0.689                    -11.725         126.284         -37.3447         57.2339         -37.3448         57.2357       -0.0602127         136.024
0.69                    -11.8981         125.917         -37.2388         54.8895         -37.2389         54.8912        -0.061235         135.913
0.691                   -12.0743         125.564         -37.1327         52.5431         -37.1327         52.5449       -0.0622837         135.801
0.692                   -12.2537         125.226         -37.0263         50.1948         -37.0263         50.1965       -0.0633593         135.688
0.693                   -12.4364         124.904         -36.9197         47.8443         -36.9197         47.8459       -0.0644628         135.575
0.694                   -12.6226           124.6         -36.8128         45.4914         -36.8128          45.493       -0.0655948          135.46
0.695                   -12.8123         124.317         -36.7057          43.136         -36.7057         43.1375       -0.0667562         135.346
0.696                   -13.0056         124.057         -36.5984         40.7779         -36.5985         40.7793       -0.0679477          135.23
0.697                   -13.2027         123.821          -36.491         38.4169          -36.491         38.4182       -0.0691701         135.114