! TOUCHSTONE file generated by CST MICROWAVE STUDIO
! Date and time: Fri Oct  2 18:57:45 2020
! Project name: Scenario_1_Free_Space_out_of_line.cst
! Parameters = {Lambda=346.42; Step_1=17.321; dy1=-33.862; dx1=1039; L_HA=400; MT=2.54; Rad_Dielectric=30; Rad_Lower=7.3; Rad_Upper=30; a_HA=580; a_WG=246; b_HA=500; b_WG=121; c_HA=0; c_WG=187; d_feed=85; h_feed=15; h_lower=18; h_upper=40}
! Header version: 2018
! Port assignment regex: !\s*Touchstone port\s*([0-9]+)\s*=\s*(CST MWS port|CST DS port)\s*([0-9]+|Zmin|Zmax)\s*\(\"(.*)\"\)(\s*mode\s*([0-9]+))?.*
! Touchstone port assignment:
! Touchstone port 1 = CST MWS port 1 ("")
! Touchstone port 2 = CST MWS port 2 ("")
# GHz S DB R 50
0.5                    -0.147361        -122.473         -63.4794          46.976         -63.4776          46.991      -0.00669555         151.154
0.501                  -0.150571        -122.909         -63.3676         44.7767         -63.3659         44.7923      -0.00674397         151.089
0.502                  -0.154046        -123.347         -63.2523         42.5572         -63.2506         42.5732      -0.00679328         151.024
0.503                   -0.15779        -123.788         -63.1335         40.3177         -63.1318         40.3342       -0.0068435         150.959
0.504                  -0.161804         -124.23         -63.0111         38.0587         -63.0094         38.0758      -0.00689462         150.893
0.505                  -0.166094        -124.676         -62.8852         35.7808         -62.8834         35.7982      -0.00694668         150.828
0.506                  -0.170662        -125.124         -62.7556         33.4843         -62.7538         33.5022      -0.00699968         150.762
0.507                  -0.175512        -125.574         -62.6223         31.1698         -62.6206          31.188      -0.00705364         150.696
0.508                  -0.180647        -126.027         -62.4855         28.8377         -62.4838         28.8563      -0.00710857          150.63
0.509                  -0.186071        -126.482          -62.345         26.4886         -62.3434         26.5076      -0.00716449         150.565
0.51                   -0.191787        -126.939          -62.201          24.123         -62.1994         24.1423      -0.00722141         150.499
0.511                  -0.197799        -127.399         -62.0533         21.7414         -62.0518         21.7609      -0.00727935         150.433
0.512                   -0.20411        -127.861         -61.9022         19.3442         -61.9006          19.364      -0.00733832         150.366
0.513                  -0.210724        -128.326         -61.7475         16.9321          -61.746          16.952      -0.00739833           150.3
0.514                  -0.217644        -128.793         -61.5893         14.5054         -61.5879         14.5255      -0.00745941         150.234
0.515                  -0.224873        -129.262         -61.4278         12.0647         -61.4263          12.085      -0.00752156         150.168
0.516                  -0.232415        -129.734         -61.2629          9.6104         -61.2615         9.63077       -0.0075848         150.101
0.517                  -0.240274        -130.208         -61.0947           7.143         -61.0934         7.16344      -0.00764915         150.035
0.518                  -0.248451        -130.684         -60.9234         4.66293         -60.9221         4.68339      -0.00771462         149.968
0.519                  -0.256952        -131.163          -60.749         2.17059         -60.7478         2.19103      -0.00778122         149.901
0.52                   -0.265779        -131.644         -60.5715       -0.333632         -60.5704       -0.313234      -0.00784898         149.834
0.521                  -0.274935        -132.127         -60.3912        -2.84935         -60.3901        -2.82904      -0.00791791         149.768
0.522                  -0.284424        -132.613         -60.2082        -5.37623         -60.2071        -5.35604      -0.00798802         149.701
0.523                  -0.294249        -133.101         -60.0224        -7.91394         -60.0214        -7.89391      -0.00805932         149.633
0.524                  -0.304414        -133.591         -59.8341        -10.4622         -59.8332        -10.4424      -0.00813184         149.566
0.525                   -0.31492        -134.083         -59.6434        -13.0207         -59.6425        -13.0011      -0.00820559         149.499
0.526                  -0.325772        -134.578         -59.4505        -15.5892         -59.4496        -15.5699      -0.00828059         149.432
0.527                  -0.336973        -135.075         -59.2554        -18.1675         -59.2546        -18.1484      -0.00835685         149.364
0.528                  -0.348526        -135.574         -59.0583        -20.7554         -59.0576        -20.7366      -0.00843438         149.297
0.529                  -0.360433        -136.076         -58.8594        -23.3526         -58.8587        -23.3342      -0.00851321         149.229
0.53                   -0.372698        -136.579         -58.6588        -25.9591         -58.6581        -25.9411      -0.00859335         149.161
0.531                  -0.385324        -137.085         -58.4567        -28.5747          -58.456         -28.557      -0.00867482         149.093
0.532                  -0.398314        -137.593         -58.2532        -31.1992         -58.2526        -31.1819      -0.00875762         149.025
0.533                  -0.411671        -138.104         -58.0485        -33.8324         -58.0479        -33.8157      -0.00884179         148.957
0.534                  -0.425397        -138.616         -57.8427        -36.4744         -57.8422        -36.4581      -0.00892733         148.889
0.535                  -0.439496        -139.131         -57.6361         -39.125         -57.6356        -39.1092      -0.00901426         148.821
0.536                   -0.45397        -139.648         -57.4287        -41.7841         -57.4283        -41.7688       -0.0091026         148.753
0.537                  -0.468822        -140.167         -57.2208        -44.4515         -57.2204        -44.4367      -0.00919237         148.684
0.538                  -0.484055        -140.688         -57.0125        -47.1272         -57.0121         -47.113      -0.00928357         148.616
0.539                  -0.499671        -141.211          -56.804        -49.8111         -56.8037        -49.7974      -0.00937624         148.547
0.54                   -0.515673        -141.736         -56.5955        -52.5031         -56.5951          -52.49      -0.00947038         148.478
0.541                  -0.532064        -142.264          -56.387         -55.203         -56.3867        -55.1904      -0.00956601         148.409
0.542                  -0.548847        -142.793         -56.1789        -57.9107         -56.1786        -57.8987      -0.00966316          148.34
0.543                  -0.566023        -143.325         -55.9712        -60.6261         -55.9709        -60.6147      -0.00976183         148.271
0.544                  -0.583596        -143.859         -55.7641        -63.3489         -55.7638        -63.3381      -0.00986204         148.202
0.545                  -0.601568        -144.395         -55.5577         -66.079         -55.5575        -66.0688      -0.00996382         148.133
0.546                  -0.619941        -144.933         -55.3523        -68.8162          -55.352        -68.8066       -0.0100672         148.063
0.547                  -0.638717        -145.473         -55.1479        -71.5603         -55.1476        -71.5513       -0.0101721         147.994
0.548                    -0.6579        -146.015         -54.9447        -74.3109         -54.9445        -74.3025       -0.0102787         147.924
0.549                   -0.67749        -146.559         -54.7429        -77.0679         -54.7426          -77.06       -0.0103869         147.854
0.55                   -0.697492        -147.105         -54.5425        -79.8308         -54.5423        -79.8235       -0.0104967         147.784
0.551                  -0.717906        -147.653         -54.3438        -82.5994         -54.3435        -82.5927       -0.0106083         147.714
0.552                  -0.738735        -148.204         -54.1468        -85.3732         -54.1465        -85.3672       -0.0107215         147.644
0.553                  -0.759981        -148.756         -53.9516         -88.152         -53.9513        -88.1465       -0.0108364         147.574
0.554                  -0.781647         -149.31         -53.7584        -90.9353         -53.7581        -90.9303        -0.010953         147.504
0.555                  -0.803734        -149.867         -53.5672        -93.7226         -53.5669        -93.7182       -0.0110714         147.433
0.556                  -0.826245        -150.425         -53.3782        -96.5134         -53.3779        -96.5096       -0.0111915         147.363
0.557                  -0.849182        -150.985         -53.1914        -99.3074         -53.1911        -99.3041       -0.0113134         147.292
0.558                  -0.872546        -151.548         -53.0069        -102.104         -53.0066        -102.101       -0.0114371         147.221
0.559                  -0.896341        -152.112         -52.8247        -104.903         -52.8244          -104.9       -0.0115626          147.15
0.56                   -0.920567        -152.678          -52.645        -107.703         -52.6447        -107.701         -0.01169         147.079
0.561                  -0.945227        -153.247         -52.4678        -110.504         -52.4675        -110.503       -0.0118192         147.008
0.562                  -0.970323        -153.817         -52.2931        -113.306         -52.2928        -113.305       -0.0119502         146.936
0.563                  -0.995858         -154.39          -52.121        -116.107         -52.1206        -116.107       -0.0120832         146.865
0.564                   -1.02183        -154.964         -51.9514        -118.908          -51.951        -118.908       -0.0122181         146.793
0.565                   -1.04825        -155.541         -51.7844        -121.707          -51.784        -121.708       -0.0123549         146.722
0.566                   -1.07511        -156.119           -51.62        -124.505         -51.6196        -124.506       -0.0124937          146.65
0.567                   -1.10242          -156.7         -51.4582        -127.301         -51.4578        -127.302       -0.0126344         146.578
0.568                   -1.13017        -157.282         -51.2989        -130.094         -51.2985        -130.096       -0.0127771         146.506
0.569                   -1.15838        -157.867         -51.1422        -132.883         -51.1418        -132.885       -0.0129218         146.433
0.57                    -1.18704        -158.454          -50.988        -135.669         -50.9875        -135.671       -0.0130686         146.361
0.571                   -1.21616        -159.042         -50.8362         -138.45         -50.8358        -138.453       -0.0132174         146.288
0.572                   -1.24573        -159.633         -50.6869        -141.227         -50.6865         -141.23       -0.0133682         146.216
0.573                   -1.27577        -160.226           -50.54        -143.998         -50.5396        -144.002       -0.0135212         146.143
0.574                   -1.30626        -160.821         -50.3954        -146.765          -50.395        -146.768       -0.0136762          146.07
0.575                   -1.33723        -161.418         -50.2531        -149.525         -50.2526        -149.529       -0.0138334         145.997
0.576                   -1.36866        -162.018         -50.1129        -152.279         -50.1125        -152.283       -0.0139928         145.923
0.577                   -1.40056        -162.619         -49.9749        -155.027         -49.9744        -155.031       -0.0141543          145.85
0.578                   -1.43294        -163.223         -49.8389        -157.768         -49.8385        -157.772        -0.014318         145.776
0.579                   -1.46579        -163.829         -49.7049        -160.502         -49.7044        -160.507       -0.0144839         145.702
0.58                    -1.49913        -164.437         -49.5728        -163.229         -49.5723        -163.234       -0.0146521         145.629
0.581                   -1.53295        -165.047         -49.4425        -165.949          -49.442        -165.954       -0.0148225         145.554
0.582                   -1.56726         -165.66         -49.3139        -168.662         -49.3134        -168.667       -0.0149952          145.48
0.583                   -1.60206        -166.275         -49.1869        -171.367         -49.1864        -171.372       -0.0151702         145.406
0.584                   -1.63736        -166.893         -49.0615        -174.065         -49.0609         -174.07       -0.0153475         145.331
0.585                   -1.67316        -167.512         -48.9375        -176.755         -48.9369        -176.761       -0.0155271         145.257
0.586                   -1.70946        -168.135         -48.8148        -179.438         -48.8143        -179.444       -0.0157092         145.182
0.587                   -1.74628        -168.759         -48.6935         177.886          -48.693          177.88       -0.0158936         145.107
0.588                   -1.78361        -169.386         -48.5733         175.217         -48.5728         175.211       -0.0160804         145.032
0.589                   -1.82147        -170.016         -48.4543         172.555         -48.4538         172.549       -0.0162697         144.956
0.59                    -1.85985        -170.648         -48.3363           169.9         -48.3357         169.895       -0.0164614         144.881
0.591                   -1.89877        -171.283         -48.2192         167.252         -48.2186         167.246       -0.0166556         144.805
0.592                   -1.93823        -171.921          -48.103         164.611         -48.1024         164.605       -0.0168523         144.729
0.593                   -1.97824        -172.561         -47.9875         161.975          -47.987          161.97       -0.0170515         144.653
0.594                   -2.01881        -173.205         -47.8728         159.346         -47.8723          159.34       -0.0172533         144.577
0.595                   -2.05995        -173.851         -47.7587         156.722         -47.7582         156.717       -0.0174577           144.5
0.596                   -2.10166          -174.5         -47.6452         154.104         -47.6447         154.099       -0.0176646         144.424
0.597                   -2.14396        -175.152         -47.5322         151.492         -47.5317         151.486       -0.0178742         144.347
0.598                   -2.18685        -175.807         -47.4197         148.884         -47.4192         148.878       -0.0180865          144.27
0.599                   -2.23036        -176.465         -47.3076          146.28          -47.307         146.275       -0.0183014         144.193
0.6                     -2.27448        -177.126         -47.1957         143.681         -47.1952         143.676       -0.0185191         144.116
0.601                   -2.31923         -177.79         -47.0842         141.086         -47.0837         141.081       -0.0187394         144.038
0.602                   -2.36464        -178.458         -46.9729         138.495         -46.9724          138.49       -0.0189626          143.96
0.603                    -2.4107        -179.129         -46.8618         135.906         -46.8613         135.902       -0.0191885         143.882
0.604                   -2.45744        -179.804         -46.7509         133.321         -46.7504         133.317       -0.0194173         143.804
0.605                   -2.50488         179.518         -46.6401         130.738         -46.6396         130.734       -0.0196489         143.726
0.606                   -2.55303         178.836         -46.5293         128.158         -46.5288         128.153       -0.0198834         143.647
0.607                   -2.60192          178.15         -46.4186         125.579         -46.4182         125.575       -0.0201208         143.569
0.608                   -2.65155         177.461          -46.308         123.002         -46.3075         122.998       -0.0203612          143.49
0.609                   -2.70196         176.768         -46.1973         120.425         -46.1969         120.422       -0.0206045          143.41
0.61                    -2.75318         176.071         -46.0867          117.85         -46.0862         117.847        -0.020851         143.331
0.611                   -2.80521         175.369          -45.976         115.275         -45.9755         115.272       -0.0211005         143.251
0.612                    -2.8581         174.664         -45.8652         112.701         -45.8648         112.698       -0.0213531         143.172
0.613                   -2.91186         173.955         -45.7544         110.126          -45.754         110.123       -0.0216089         143.091
0.614                   -2.96654         173.241         -45.6436         107.551         -45.6432         107.549       -0.0218679         143.011
0.615                   -3.02216         172.523         -45.5327         104.975         -45.5323         104.973       -0.0221302         142.931
0.616                   -3.07876           171.8         -45.4217         102.399         -45.4213         102.396       -0.0223958          142.85
0.617                   -3.13636         171.073         -45.3106         99.8206         -45.3103         99.8184       -0.0226649         142.769
0.618                   -3.19503         170.342         -45.1996         97.2409         -45.1992          97.239       -0.0229375         142.688
0.619                   -3.25478         169.606         -45.0884         94.6596         -45.0881         94.6578       -0.0232136         142.606
0.62                    -3.31567         168.865         -44.9772         92.0762         -44.9769         92.0746       -0.0234935         142.524
0.621                   -3.37774         168.119          -44.866         89.4906         -44.8657         89.4892       -0.0237771         142.442
0.622                   -3.44105         167.369         -44.7548         86.9025         -44.7545         86.9014       -0.0240646          142.36
0.623                   -3.50563         166.614         -44.6436         84.3119         -44.6433         84.3109       -0.0243561         142.278
0.624                   -3.57155         165.854         -44.5324         81.7185         -44.5321         81.7177       -0.0246518         142.195
0.625                   -3.63886         165.089         -44.4213         79.1222          -44.421         79.1216       -0.0249518         142.112
0.626                   -3.70763         164.319         -44.3103         76.5228           -44.31         76.5224       -0.0252563         142.029
0.627                   -3.77791         163.545         -44.1993         73.9203          -44.199           73.92       -0.0255654         141.945
0.628                   -3.84976         162.766         -44.0885         71.3145         -44.0882         71.3144       -0.0258795         141.861
0.629                   -3.92327         161.982         -43.9778         68.7054         -43.9775         68.7054       -0.0261988         141.777
0.63                    -3.99849         161.194         -43.8673         66.0929          -43.867         66.0931       -0.0265234         141.693
0.631                    -4.0755         160.402          -43.757          63.477         -43.7567         63.4773       -0.0268537         141.608
0.632                   -4.15438         159.605         -43.6469         60.8576         -43.6467         60.8581       -0.0271899         141.523
0.633                   -4.23521         158.804         -43.5371         58.2348         -43.5369         58.2354       -0.0275325         141.437
0.634                   -4.31806         157.999         -43.4276         55.6086         -43.4274         55.6094       -0.0278816         141.352
0.635                   -4.40302         157.191         -43.3184          52.979         -43.3182         52.9799       -0.0282377         141.266
0.636                   -4.49017         156.379         -43.2096         50.3461         -43.2094         50.3471       -0.0286011          141.18
0.637                    -4.5796         155.564         -43.1011           47.71          -43.101         47.7111       -0.0289722         141.093
0.638                    -4.6714         154.747         -42.9931         45.0707          -42.993         45.0719       -0.0293512         141.006
0.639                   -4.76564         153.928         -42.8855         42.4284         -42.8854         42.4297       -0.0297385         140.919
0.64                    -4.86243         153.107         -42.7784         39.7832         -42.7783         39.7846       -0.0301343         140.832
0.641                   -4.96184         152.285         -42.6718         37.1353         -42.6717         37.1367       -0.0305388         140.744
0.642                   -5.06396         151.462         -42.5658         34.4848         -42.5657         34.4863       -0.0309523         140.656
0.643                   -5.16886          150.64         -42.4602         31.8319         -42.4601         31.8334       -0.0313747         140.567
0.644                   -5.27663         149.819         -42.3553         29.1767         -42.3552         29.1783       -0.0318061         140.479
0.645                   -5.38735         148.999          -42.251         26.5196         -42.2509         26.5213       -0.0322464          140.39
0.646                   -5.50107         148.182         -42.1472         23.8607         -42.1472         23.8624       -0.0326955           140.3
0.647                   -5.61787         147.369         -42.0441         21.2003         -42.0441          21.202       -0.0331532          140.21
0.648                   -5.73779          146.56         -41.9417         18.5385         -41.9416         18.5402       -0.0336191          140.12
0.649                   -5.86088         145.756         -41.8399         15.8757         -41.8399         15.8774        -0.034093          140.03
0.65                    -5.98718          144.96         -41.7388         13.2121         -41.7388         13.2138       -0.0345744         139.939
0.651                    -6.1167         144.171         -41.6384         10.5479         -41.6383         10.5496        -0.035063         139.848
0.652                   -6.24947         143.391         -41.5386         7.88352         -41.5386          7.8852       -0.0355585         139.757
0.653                   -6.38548         142.621         -41.4396         5.21909         -41.4396         5.22075       -0.0360606         139.665
0.654                   -6.52471         141.863         -41.3413         2.55494         -41.3412         2.55657       -0.0365689         139.573
0.655                   -6.66713         141.117         -41.2436       -0.108663         -41.2436       -0.107075       -0.0370832          139.48
0.656                   -6.81269         140.385         -41.1466        -2.77145         -41.1466        -2.76991       -0.0376035         139.387
0.657                   -6.96132         139.669         -41.0504        -5.43314         -41.0504        -5.43166       -0.0381295         139.294
0.658                   -7.11294          138.97         -40.9548        -8.09348         -40.9548        -8.09206       -0.0386613           139.2
0.659                   -7.26745         138.288         -40.8598        -10.7522         -40.8598        -10.7508       -0.0391989         139.106
0.66                    -7.42473         137.625         -40.7655        -13.4091         -40.7655        -13.4078       -0.0397424         139.011
0.661                   -7.58463         136.983         -40.6718        -16.0638         -40.6718        -16.0626        -0.040292         138.917
0.662                   -7.74701         136.362         -40.5788        -18.7161         -40.5788         -18.715        -0.040848         138.821
0.663                    -7.9117         135.764         -40.4863        -21.3659         -40.4863        -21.3649       -0.0414105         138.725
0.664                   -8.07851         135.188         -40.3944        -24.0129         -40.3944        -24.0119         -0.04198         138.629
0.665                   -8.24724         134.637          -40.303        -26.6568         -40.3031         -26.656       -0.0425567         138.532
0.666                   -8.41768         134.111         -40.2122        -29.2975         -40.2122        -29.2968        -0.043141         138.435
0.667                   -8.58961          133.61         -40.1218        -31.9349         -40.1219        -31.9342       -0.0437332         138.337
0.668                   -8.76282         133.135         -40.0319        -34.5687          -40.032        -34.5681       -0.0443339         138.239
0.669                   -8.93706         132.687         -39.9425        -37.1987         -39.9425        -37.1983       -0.0449434         138.141
0.67                     -9.1121         132.264         -39.8534        -39.8249         -39.8534        -39.8246       -0.0455622         138.041
0.671                   -9.28772         131.868         -39.7646        -42.4472         -39.7647         -42.447       -0.0461907         137.942
0.672                   -9.46368         131.498         -39.6762        -45.0653         -39.6763        -45.0653       -0.0468294         137.841
0.673                   -9.63976         131.153         -39.5881        -47.6793         -39.5882        -47.6794       -0.0474787         137.741
0.674                   -9.81576         130.835         -39.5002        -50.2891         -39.5003        -50.2893       -0.0481391         137.639
0.675                   -9.99146         130.541         -39.4126        -52.8946         -39.4126        -52.8949       -0.0488112         137.538
0.676                   -10.1667         130.271         -39.3251        -55.4957         -39.3251        -55.4961       -0.0494954         137.435
0.677                   -10.3412         130.025         -39.2377        -58.0925         -39.2378         -58.093       -0.0501924         137.332
0.678                    -10.515         129.801         -39.1505         -60.685         -39.1506        -60.6856       -0.0509025         137.229
0.679                   -10.6878         129.599         -39.0633        -63.2731         -39.0634        -63.2738       -0.0516263         137.125
0.68                    -10.8595         129.417         -38.9761        -65.8568         -38.9762        -65.8576       -0.0523645          137.02
0.681                   -11.0301         129.256         -38.8889        -68.4363          -38.889        -68.4372       -0.0531176         136.915
0.682                   -11.1995         129.112         -38.8017        -71.0116         -38.8018        -71.0126       -0.0538862         136.809
0.683                   -11.3675         128.987         -38.7144        -73.5828         -38.7145        -73.5839        -0.054671         136.702
0.684                   -11.5343         128.878          -38.627        -76.1498         -38.6271         -76.151       -0.0554724         136.595
0.685                   -11.6997         128.784         -38.5394         -78.713         -38.5395        -78.7143       -0.0562914         136.487
0.686                   -11.8638         128.705         -38.4516        -81.2723         -38.4517        -81.2737       -0.0571284         136.378
0.687                   -12.0265         128.639         -38.3636        -83.8279         -38.3638        -83.8293       -0.0579843         136.269
0.688                    -12.188         128.586         -38.2754        -86.3799         -38.2755        -86.3814       -0.0588597         136.159
0.689                   -12.3483         128.545         -38.1869        -88.9285          -38.187        -88.9301       -0.0597554         136.049
0.69                    -12.5075         128.516         -38.0981        -91.4739         -38.0982        -91.4755       -0.0606722         135.937
0.691                   -12.6656         128.497         -38.0089        -94.0161          -38.009        -94.0179        -0.061611         135.825
0.692                   -12.8227         128.489         -37.9194        -96.5555         -37.9195        -96.5573       -0.0625725         135.713
0.693                    -12.979          128.49         -37.8295        -99.0922         -37.8296        -99.0941       -0.0635576         135.599
0.694                   -13.1345         128.502         -37.7392        -101.626         -37.7393        -101.628       -0.0645672         135.485
0.695                   -13.2894         128.523         -37.6485        -104.158         -37.6486         -104.16       -0.0656023          135.37
0.696                   -13.4437         128.554         -37.5573        -106.688         -37.5575         -106.69       -0.0666638         135.254
0.697                   -13.5976         128.595         -37.4657        -109.216         -37.4658        -109.218       -0.0677527         135.137