! TOUCHSTONE file generated by CST MICROWAVE STUDIO
! Date and time: Fri Oct  2 18:38:23 2020
! Project name: Scenario_1_Free_Space_out_of_line.cst
! Parameters = {Lambda=346.42; Step_1=17.321; dy1=-51.203; dx1=173; L_HA=400; MT=2.54; Rad_Dielectric=30; Rad_Lower=7.3; Rad_Upper=30; a_HA=580; a_WG=246; b_HA=500; b_WG=121; c_HA=0; c_WG=187; d_feed=85; h_feed=15; h_lower=18; h_upper=40}
! Header version: 2018
! Port assignment regex: !\s*Touchstone port\s*([0-9]+)\s*=\s*(CST MWS port|CST DS port)\s*([0-9]+|Zmin|Zmax)\s*\(\"(.*)\"\)(\s*mode\s*([0-9]+))?.*
! Touchstone port assignment:
! Touchstone port 1 = CST MWS port 1 ("")
! Touchstone port 2 = CST MWS port 2 ("")
# GHz S DB R 50
0.5                    -0.160266        -122.544         -56.1267         170.026         -56.1267         170.026      -0.00678566         151.117
0.501                  -0.166756        -122.975         -55.9412         168.653         -55.9413          168.66      -0.00682383         151.052
0.502                  -0.173341        -123.408         -55.7556         167.279         -55.7558         167.292       -0.0068621         150.987
0.503                  -0.180022        -123.843         -55.5702         165.903         -55.5704         165.922      -0.00690051         150.921
0.504                  -0.186802         -124.28         -55.3849         164.525         -55.3851          164.55      -0.00693908         150.856
0.505                  -0.193681        -124.719         -55.1997         163.145         -55.1999         163.176      -0.00697784          150.79
0.506                  -0.200663        -125.159         -55.0147         161.764         -55.0148           161.8      -0.00701683         150.725
0.507                  -0.207749        -125.602         -54.8298         160.381         -54.8299         160.421      -0.00705607         150.659
0.508                  -0.214941        -126.046         -54.6452         158.995         -54.6452          159.04       -0.0070956         150.594
0.509                  -0.222242        -126.493         -54.4609         157.608         -54.4608         157.656      -0.00713544         150.528
0.51                   -0.229654        -126.941         -54.2768         156.218         -54.2765          156.27      -0.00717563         150.462
0.511                  -0.237179        -127.392          -54.093         154.826         -54.0926         154.881       -0.0072162         150.396
0.512                  -0.244819        -127.844         -53.9095         153.432          -53.909          153.49      -0.00725718          150.33
0.513                  -0.252579        -128.299         -53.7264         152.035         -53.7257         152.096      -0.00729862         150.264
0.514                  -0.260459        -128.756         -53.5436         150.636         -53.5427         150.699      -0.00734055         150.198
0.515                  -0.268463        -129.215         -53.3613         149.235         -53.3601           149.3        -0.007383         150.131
0.516                  -0.276593        -129.676         -53.1793         147.831          -53.178         147.898      -0.00742601         150.065
0.517                  -0.284854         -130.14         -52.9978         146.425         -52.9963         146.493      -0.00746962         149.998
0.518                  -0.293248        -130.606         -52.8167         145.017          -52.815         145.086      -0.00751387         149.932
0.519                  -0.301778        -131.074         -52.6361         143.606         -52.6342         143.676      -0.00755879         149.865
0.52                   -0.310448        -131.544          -52.456         142.192         -52.4538         142.263      -0.00760444         149.798
0.521                  -0.319261        -132.017         -52.2764         140.777          -52.274         140.847      -0.00765085         149.731
0.522                  -0.328221        -132.492         -52.0974         139.359         -52.0948         139.429      -0.00769806         149.664
0.523                  -0.337333         -132.97         -51.9189         137.938          -51.916         138.009      -0.00774613         149.597
0.524                  -0.346599         -133.45         -51.7409         136.515         -51.7379         136.585      -0.00779509          149.53
0.525                  -0.356024        -133.933         -51.5635          135.09         -51.5603         135.159      -0.00784499         149.463
0.526                  -0.365613        -134.418         -51.3868         133.663         -51.3834         133.731      -0.00789587         149.395
0.527                  -0.375371        -134.905         -51.2106         132.234          -51.207         132.301       -0.0079478         149.328
0.528                  -0.385301        -135.396          -51.035         130.802         -51.0313         130.868       -0.0080008          149.26
0.529                  -0.395408        -135.889         -50.8601         129.368         -50.8562         129.433      -0.00805495         149.193
0.53                   -0.405699        -136.385         -50.6858         127.933         -50.6818         127.996      -0.00811028         149.125
0.531                  -0.416177        -136.883         -50.5122         126.495          -50.508         126.556      -0.00816685         149.057
0.532                  -0.426849        -137.384         -50.3392         125.056         -50.3349         125.115      -0.00822472         148.989
0.533                  -0.437721        -137.888         -50.1668         123.615         -50.1625         123.672      -0.00828394         148.921
0.534                  -0.448797        -138.395         -49.9952         122.172         -49.9907         122.227      -0.00834456         148.853
0.535                  -0.460085        -138.905         -49.8241         120.728         -49.8196          120.78      -0.00840664         148.785
0.536                  -0.471591        -139.418         -49.6538         119.282         -49.6493         119.332      -0.00847025         148.716
0.537                  -0.483322        -139.933         -49.4841         117.835         -49.4796         117.882      -0.00853544         148.648
0.538                  -0.495284        -140.452         -49.3151         116.386         -49.3105         116.431      -0.00860227         148.579
0.539                  -0.507485        -140.974         -49.1467         114.936         -49.1422         114.979      -0.00867081          148.51
0.54                   -0.519932        -141.499         -48.9791         113.485         -48.9746         113.526      -0.00874112         148.441
0.541                  -0.532634        -142.027          -48.812         112.033         -48.8076         112.071      -0.00881326         148.372
0.542                  -0.545597        -142.558         -48.6456          110.58         -48.6413         110.616       -0.0088873         148.303
0.543                  -0.558831        -143.093         -48.4799         109.126         -48.4756         109.159      -0.00896331         148.234
0.544                  -0.572345         -143.63         -48.3147         107.672         -48.3106         107.702      -0.00904136         148.165
0.545                  -0.586147        -144.172         -48.1502         106.216         -48.1462         106.244      -0.00912152         148.095
0.546                  -0.600247        -144.716         -47.9863          104.76         -47.9825         104.786      -0.00920385         148.026
0.547                  -0.614655        -145.264          -47.823         103.303         -47.8193         103.327      -0.00928843         147.956
0.548                  -0.629381        -145.815         -47.6603         101.846         -47.6568         101.867      -0.00937534         147.887
0.549                  -0.644435         -146.37         -47.4981         100.389         -47.4948         100.408      -0.00946465         147.817
0.55                    -0.65983        -146.929         -47.3365         98.9308         -47.3334         98.9476      -0.00955644         147.747
0.551                  -0.675575         -147.49         -47.1754         97.4725         -47.1725         97.4873      -0.00965078         147.676
0.552                  -0.691683        -148.056         -47.0149          96.014         -47.0122         96.0269      -0.00974775         147.606
0.553                  -0.708166        -148.625         -46.8548         94.5551         -46.8523         94.5663      -0.00984743         147.536
0.554                  -0.725037        -149.198         -46.6952         93.0961         -46.6929         93.1055       -0.0099499         147.465
0.555                   -0.74231        -149.775          -46.536         91.6368          -46.534         91.6447       -0.0100552         147.395
0.556                  -0.759998        -150.356         -46.3773         90.1773         -46.3755         90.1838       -0.0101635         147.324
0.557                  -0.778115         -150.94          -46.219         88.7177         -46.2175         88.7229       -0.0102749         147.253
0.558                  -0.796676        -151.528          -46.061         87.2578         -46.0598         87.2618       -0.0103894         147.182
0.559                  -0.815697         -152.12         -45.9034         85.7977         -45.9025         85.8007        -0.010507         147.111
0.56                   -0.835193        -152.717         -45.7462         84.3374         -45.7455         84.3395        -0.010628          147.04
0.561                  -0.855181        -153.317         -45.5893         82.8768         -45.5888          82.878       -0.0107523         146.968
0.562                  -0.875677        -153.921         -45.4326         81.4159         -45.4324         81.4164       -0.0108802         146.897
0.563                  -0.896701        -154.529         -45.2763         79.9546         -45.2763         79.9546       -0.0110115         146.825
0.564                   -0.91827        -155.141         -45.1202         78.4928         -45.1204         78.4923       -0.0111465         146.753
0.565                  -0.940402        -155.758         -44.9643         77.0305         -44.9647         77.0297       -0.0112852         146.681
0.566                  -0.963119        -156.378         -44.8086         75.5676         -44.8093         75.5666       -0.0114278         146.609
0.567                  -0.986439        -157.003         -44.6531         74.1039         -44.6539         74.1028       -0.0115742         146.537
0.568                   -1.01038        -157.632         -44.4977         72.6395         -44.4988         72.6383       -0.0117247         146.465
0.569                   -1.03498        -158.265         -44.3425         71.1741         -44.3437          71.173       -0.0118792         146.392
0.57                    -1.06024        -158.902         -44.1874         69.7076         -44.1888         69.7067       -0.0120378         146.319
0.571                   -1.08619        -159.544         -44.0324         68.2399          -44.034         68.2392       -0.0122007         146.247
0.572                   -1.11286         -160.19         -43.8774         66.7709         -43.8792         66.7705       -0.0123679         146.174
0.573                   -1.14026         -160.84         -43.7226         65.3003         -43.7245         65.3003       -0.0125395         146.101
0.574                   -1.16844        -161.494         -43.5678         63.8281         -43.5698         63.8285       -0.0127156         146.028
0.575                    -1.1974        -162.153          -43.413          62.354         -43.4151         62.3549       -0.0128962         145.954
0.576                   -1.22719        -162.816         -43.2582         60.8779         -43.2604         60.8792       -0.0130815         145.881
0.577                   -1.25782        -163.483         -43.1035         59.3995         -43.1058         59.4014       -0.0132715         145.807
0.578                   -1.28932        -164.154         -42.9488         57.9188         -42.9511         57.9213       -0.0134662         145.733
0.579                   -1.32173        -164.829          -42.794         56.4354         -42.7964         56.4385       -0.0136658         145.659
0.58                    -1.35507        -165.508         -42.6393         54.9492         -42.6417         54.9529       -0.0138702         145.585
0.581                   -1.38938        -166.192         -42.4845           53.46          -42.487         53.4642       -0.0140796         145.511
0.582                   -1.42468        -166.879         -42.3298         51.9675         -42.3322         51.9724       -0.0142941         145.437
0.583                     -1.461        -167.571          -42.175         50.4716         -42.1774          50.477       -0.0145135         145.362
0.584                   -1.49839        -168.266         -42.0202          48.972         -42.0226          48.978       -0.0147381         145.288
0.585                   -1.53686        -168.965         -41.8654         47.4685         -41.8678         47.4751       -0.0149678         145.213
0.586                   -1.57647        -169.668         -41.7107         45.9609          -41.713          45.968       -0.0152027         145.138
0.587                   -1.61723        -170.375         -41.5559          44.449         -41.5582         44.4565       -0.0154427         145.063
0.588                   -1.65918        -171.085         -41.4011         42.9325         -41.4034         42.9404        -0.015688         144.987
0.589                   -1.70237        -171.798         -41.2465         41.4112         -41.2486         41.4196       -0.0159385         144.912
0.59                    -1.74682        -172.515         -41.0918         39.8849         -41.0939         39.8937       -0.0161942         144.836
0.591                   -1.79256        -173.234         -40.9373         38.3535         -40.9392         38.3626       -0.0164551         144.761
0.592                   -1.83965        -173.957         -40.7828         36.8167         -40.7847          36.826       -0.0167213         144.685
0.593                    -1.8881        -174.682         -40.6284         35.2742         -40.6303         35.2838       -0.0169926         144.609
0.594                   -1.93796         -175.41         -40.4743         33.7261          -40.476         33.7357       -0.0172692         144.532
0.595                   -1.98926         -176.14         -40.3202         32.1719         -40.3218         32.1817       -0.0175508         144.456
0.596                   -2.04204        -176.872         -40.1664         30.6116         -40.1679         30.6215       -0.0178376         144.379
0.597                   -2.09633        -177.606         -40.0129         29.0451         -40.0142          29.055       -0.0181293         144.303
0.598                   -2.15217        -178.342         -39.8596         27.4721         -39.8608         27.4819       -0.0184261         144.226
0.599                   -2.20958        -179.079         -39.7066         25.8926         -39.7078         25.9023       -0.0187277         144.149
0.6                     -2.26861        -179.817         -39.5539         24.3064          -39.555          24.316       -0.0190341         144.072
0.601                   -2.32927         179.445         -39.4017         22.7134         -39.4026         22.7228       -0.0193453         143.994
0.602                    -2.3916         178.706         -39.2498         21.1135         -39.2507         21.1227       -0.0196611         143.917
0.603                   -2.45564         177.967         -39.0985         19.5067         -39.0993         19.5156       -0.0199813         143.839
0.604                   -2.52139         177.228         -38.9476         17.8929         -38.9483         17.9015        -0.020306         143.761
0.605                    -2.5889          176.49         -38.7974         16.2721          -38.798         16.2804       -0.0206349         143.683
0.606                   -2.65817         175.754         -38.6477         14.6442         -38.6482         14.6522        -0.020968         143.605
0.607                   -2.72923         175.019         -38.4987         13.0093         -38.4991         13.0169        -0.021305         143.527
0.608                    -2.8021         174.286         -38.3503         11.3673         -38.3507         11.3745       -0.0216458         143.448
0.609                   -2.87677         173.556         -38.2028         9.71842         -38.2031         9.72523       -0.0219903         143.369
0.61                    -2.95327         172.829          -38.056         8.06261         -38.0563         8.06899       -0.0223383         143.291
0.611                    -3.0316         172.105         -37.9101         6.39997         -37.9103         6.40593       -0.0226896         143.211
0.612                   -3.11176         171.386          -37.765         4.73062         -37.7652         4.73615       -0.0230441         143.132
0.613                   -3.19374         170.671         -37.6209         3.05469          -37.621         3.05979       -0.0234015         143.053
0.614                   -3.27754         169.961         -37.4778         1.37233         -37.4779           1.377       -0.0237617         142.973
0.615                   -3.36313         169.257         -37.3357       -0.316296         -37.3357       -0.312038       -0.0241246         142.893
0.616                   -3.45051         168.559         -37.1947        -2.01099         -37.1947        -2.00714       -0.0244898         142.813
0.617                   -3.53964         167.869         -37.0548        -3.71154         -37.0548        -3.70808       -0.0248573         142.733
0.618                    -3.6305         167.186          -36.916        -5.41771          -36.916        -5.41463       -0.0252269         142.652
0.619                   -3.72304          166.51         -36.7785        -7.12926         -36.7784        -7.12654       -0.0255983         142.572
0.62                    -3.81722         165.844         -36.6421        -8.84591         -36.6421        -8.84353       -0.0259715         142.491
0.621                   -3.91298         165.187          -36.507        -10.5674          -36.507        -10.5653       -0.0263463          142.41
0.622                   -4.01028         164.539         -36.3732        -12.2934         -36.3732        -12.2916       -0.0267224         142.329
0.623                   -4.10904         163.902         -36.2408        -14.0236         -36.2407        -14.0221       -0.0270998         142.247
0.624                   -4.20919         163.276         -36.1096        -15.7577         -36.1096        -15.7565       -0.0274783         142.165
0.625                   -4.31065         162.661         -35.9799        -17.4954         -35.9798        -17.4943       -0.0278578         142.083
0.626                   -4.41333         162.058         -35.8515        -19.2362         -35.8514        -19.2354       -0.0282381         142.001
0.627                   -4.51713         161.467         -35.7245        -20.9799         -35.7245        -20.9793       -0.0286192         141.919
0.628                   -4.62196          160.89          -35.599        -22.7261         -35.5989        -22.7256       -0.0290011         141.836
0.629                   -4.72771         160.325         -35.4748        -24.4744         -35.4748         -24.474       -0.0293835         141.753
0.63                    -4.83425         159.774         -35.3521        -26.2245         -35.3521        -26.2242       -0.0297666          141.67
0.631                   -4.94148         159.237         -35.2308        -27.9759         -35.2308        -27.9757       -0.0301502         141.586
0.632                   -5.04925         158.714         -35.1109        -29.7283         -35.1109        -29.7282       -0.0305343         141.503
0.633                   -5.15744         158.205         -34.9925        -31.4814         -34.9925        -31.4814        -0.030919         141.419
0.634                   -5.26591         157.711         -34.8755        -33.2347         -34.8755        -33.2347       -0.0313042         141.335
0.635                   -5.37453         157.231         -34.7598         -34.988         -34.7598         -34.988       -0.0316901          141.25
0.636                   -5.48313         156.765         -34.6456        -36.7408         -34.6456        -36.7409       -0.0320767         141.165
0.637                   -5.59159         156.314         -34.5327        -38.4929         -34.5327        -38.4929       -0.0324641          141.08
0.638                   -5.69975         155.877         -34.4212        -40.2438         -34.4212        -40.2438       -0.0328524         140.995
0.639                   -5.80746         155.454          -34.311        -41.9932          -34.311        -41.9933       -0.0332417         140.909
0.64                    -5.91458         155.045         -34.2021        -43.7409         -34.2021         -43.741       -0.0336323         140.823
0.641                   -6.02096         154.649         -34.0944        -45.4866         -34.0944        -45.4866       -0.0340243         140.737
0.642                   -6.12647         154.265          -33.988        -47.2299          -33.988        -47.2299       -0.0344178          140.65
0.643                   -6.23095         153.894         -33.8828        -48.9706         -33.8828        -48.9706       -0.0348132         140.563
0.644                   -6.33429         153.534         -33.7788        -50.7084         -33.7787        -50.7084       -0.0352107         140.476
0.645                   -6.43635         153.185         -33.6758        -52.4431         -33.6758        -52.4431       -0.0356106         140.388
0.646                   -6.53702         152.846          -33.574        -54.1745          -33.574        -54.1744       -0.0360131           140.3
0.647                   -6.63619         152.516         -33.4732        -55.9023         -33.4732        -55.9022       -0.0364185         140.212
0.648                   -6.73375         152.195         -33.3735        -57.6264         -33.3734        -57.6263       -0.0368272         140.123
0.649                   -6.82963          151.88         -33.2747        -59.3466         -33.2746        -59.3466       -0.0372395         140.034
0.65                    -6.92374         151.572         -33.1768        -61.0628         -33.1767        -61.0627       -0.0376559         139.945
0.651                   -7.01602         151.269         -33.0798        -62.7748         -33.0797        -62.7747       -0.0380766         139.855
0.652                   -7.10642          150.97         -32.9836        -64.4824         -32.9835        -64.4824       -0.0385021         139.765
0.653                    -7.1949         150.674         -32.8882        -66.1857         -32.8881        -66.1857       -0.0389327         139.674
0.654                   -7.28143         150.379         -32.7935        -67.8845         -32.7935        -67.8845        -0.039369         139.583
0.655                   -7.36601         150.085         -32.6996        -69.5788         -32.6995        -69.5788       -0.0398113         139.492
0.656                   -7.44863          149.79         -32.6063        -71.2684         -32.6062        -71.2684       -0.0402601           139.4
0.657                   -7.52932         149.493         -32.5136        -72.9534         -32.5135        -72.9535       -0.0407159         139.308
0.658                    -7.6081         149.193         -32.4214        -74.6338         -32.4213        -74.6339       -0.0411791         139.215
0.659                   -7.68502         148.889         -32.3298        -76.3095         -32.3297        -76.3096       -0.0416503         139.122
0.66                    -7.76014         148.579         -32.2387        -77.9806         -32.2386        -77.9807       -0.0421299         139.029
0.661                   -7.83352         148.263          -32.148         -79.647         -32.1479        -79.6472       -0.0426184         138.935
0.662                   -7.90525         147.939         -32.0577        -81.3089         -32.0576        -81.3091       -0.0431164          138.84
0.663                   -7.97541         147.607         -31.9677        -82.9662         -31.9676        -82.9664       -0.0436244         138.746
0.664                   -8.04412         147.265         -31.8781        -84.6191          -31.878        -84.6193       -0.0441428          138.65
0.665                   -8.11147         146.913         -31.7887        -86.2675         -31.7886        -86.2678       -0.0446724         138.555
0.666                    -8.1776         146.549         -31.6996        -87.9117         -31.6995         -87.912       -0.0452136         138.459
0.667                   -8.24262         146.173         -31.6106        -89.5516         -31.6105        -89.5519       -0.0457669         138.362
0.668                   -8.30668         145.784         -31.5219        -91.1875         -31.5218        -91.1878        -0.046333         138.265
0.669                   -8.36991         145.381         -31.4332        -92.8193         -31.4332        -92.8196       -0.0469123         138.167
0.67                    -8.43246         144.964         -31.3447        -94.4473         -31.3447        -94.4476       -0.0475056         138.069
0.671                   -8.49448         144.532         -31.2563        -96.0715         -31.2562        -96.0718       -0.0481133          137.97
0.672                   -8.55612         144.084         -31.1679        -97.6921         -31.1678        -97.6923        -0.048736         137.871
0.673                   -8.61754         143.621         -31.0795        -99.3092         -31.0794        -99.3095       -0.0493744         137.772
0.674                    -8.6789         143.142         -30.9911        -100.923         -30.9911        -100.923       -0.0500291         137.671
0.675                   -8.74037         142.646         -30.9027        -102.534         -30.9026        -102.534       -0.0507006         137.571
0.676                    -8.8021         142.132         -30.8142        -104.141         -30.8142        -104.141       -0.0513895         137.469
0.677                   -8.86426         141.602         -30.7256        -105.746         -30.7256        -105.746       -0.0520966         137.368
0.678                   -8.92702         141.054          -30.637        -107.348         -30.6369        -107.348       -0.0528224         137.265
0.679                   -8.99054         140.489         -30.5482        -108.948         -30.5482        -108.948       -0.0535675         137.163
0.68                    -9.05498         139.906         -30.4592        -110.545         -30.4592        -110.545       -0.0543325         137.059
0.681                   -9.12052         139.306         -30.3702         -112.14         -30.3702         -112.14       -0.0551182         136.955
0.682                   -9.18732         138.687         -30.2809        -113.733         -30.2809        -113.733       -0.0559252         136.851
0.683                   -9.25554         138.051         -30.1915        -115.325         -30.1915        -115.325       -0.0567541         136.745
0.684                   -9.32536         137.397         -30.1019        -116.914         -30.1019        -116.914       -0.0576055          136.64
0.685                   -9.39694         136.726          -30.012        -118.503         -30.0121        -118.503       -0.0584802         136.533
0.686                   -9.47044         136.037          -29.922         -120.09          -29.922         -120.09       -0.0593789         136.426
0.687                   -9.54604         135.331         -29.8317        -121.676         -29.8318        -121.676       -0.0603021         136.319
0.688                    -9.6239         134.607         -29.7413        -123.261         -29.7413        -123.261       -0.0612506         136.211
0.689                    -9.7042         133.866         -29.6505        -124.846         -29.6505        -124.845        -0.062225         136.102
0.69                     -9.7871         133.109         -29.5596         -126.43         -29.5596        -126.429       -0.0632261         135.992
0.691                   -9.87278         132.335         -29.4684        -128.013         -29.4684        -128.013       -0.0642546         135.882
0.692                    -9.9614         131.545         -29.3769        -129.597         -29.3769        -129.597       -0.0653111         135.771
0.693                   -10.0532         130.738         -29.2852        -131.181         -29.2853         -131.18       -0.0663964          135.66
0.694                   -10.1482         129.916         -29.1933        -132.765         -29.1933        -132.764       -0.0675111         135.548
0.695                   -10.2468         129.078         -29.1012        -134.349         -29.1012        -134.349       -0.0686561         135.435
0.696                    -10.349         128.226         -29.0088        -135.935         -29.0088        -135.934       -0.0698319         135.322
0.697                   -10.4551         127.358         -28.9162         -137.52         -28.9162         -137.52       -0.0710394         135.207