! TOUCHSTONE file generated by CST MICROWAVE STUDIO
! Date and time: Fri Oct  2 16:57:54 2020
! Project name: Scenario_1_Free_Space_out_of_line.cst
! Parameters = {Lambda=346.42; Step_1=17.321; dy1=-51.203; dx1=693; L_HA=400; MT=2.54; Rad_Dielectric=30; Rad_Lower=7.3; Rad_Upper=30; a_HA=580; a_WG=246; b_HA=500; b_WG=121; c_HA=0; c_WG=187; d_feed=85; h_feed=15; h_lower=18; h_upper=40}
! Header version: 2018
! Port assignment regex: !\s*Touchstone port\s*([0-9]+)\s*=\s*(CST MWS port|CST DS port)\s*([0-9]+|Zmin|Zmax)\s*\(\"(.*)\"\)(\s*mode\s*([0-9]+))?.*
! Touchstone port assignment:
! Touchstone port 1 = CST MWS port 1 ("")
! Touchstone port 2 = CST MWS port 2 ("")
# GHz S DB R 50
0.5                    -0.145291        -122.491         -62.3924        -116.266         -62.3924        -116.266      -0.00662039         151.161
0.501                  -0.148114        -122.915          -62.338        -117.861          -62.338        -117.858      -0.00666984         151.096
0.502                  -0.151164        -123.341         -62.2812        -119.479         -62.2812        -119.472      -0.00672002         151.031
0.503                  -0.154445         -123.77         -62.2218         -121.12         -62.2218         -121.11      -0.00677095         150.965
0.504                  -0.157962        -124.202         -62.1597        -122.784         -62.1598        -122.771      -0.00682262           150.9
0.505                  -0.161719        -124.636         -62.0949        -124.472          -62.095        -124.455      -0.00687506         150.835
0.506                  -0.165721        -125.073         -62.0271        -126.182         -62.0273        -126.163      -0.00692829         150.769
0.507                  -0.169972        -125.512         -61.9563        -127.916         -61.9566        -127.893      -0.00698231         150.704
0.508                  -0.174477        -125.955         -61.8823        -129.672         -61.8827        -129.646      -0.00703715         150.638
0.509                   -0.17924        -126.399         -61.8051        -131.451         -61.8056        -131.422      -0.00709282         150.573
0.51                   -0.184266        -126.847         -61.7245        -133.251         -61.7251         -133.22      -0.00714933         150.507
0.511                   -0.18956        -127.297         -61.6404        -135.074         -61.6412         -135.04       -0.0072067         150.441
0.512                  -0.195127         -127.75         -61.5527        -136.919         -61.5536        -136.882      -0.00726495         150.375
0.513                  -0.200971        -128.205         -61.4613        -138.785         -61.4624        -138.745      -0.00732408         150.309
0.514                  -0.207097        -128.664         -61.3661        -140.671         -61.3674        -140.629      -0.00738412         150.243
0.515                  -0.213509        -129.124          -61.267        -142.578         -61.2684        -142.533      -0.00744508         150.177
0.516                  -0.220214        -129.588         -61.1639        -144.505         -61.1655        -144.457      -0.00750697         150.111
0.517                  -0.227215        -130.054         -61.0567        -146.451         -61.0586        -146.401      -0.00756981         150.044
0.518                  -0.234518        -130.523         -60.9454        -148.415         -60.9474        -148.364      -0.00763362         149.978
0.519                  -0.242127        -130.994         -60.8298        -150.398         -60.8321        -150.344      -0.00769842         149.911
0.52                   -0.250048        -131.469         -60.7099        -152.397         -60.7124        -152.342      -0.00776421         149.845
0.521                  -0.258285        -131.945         -60.5857        -154.414         -60.5884        -154.357      -0.00783101         149.778
0.522                  -0.266843        -132.425         -60.4571        -156.446           -60.46        -156.388      -0.00789884         149.711
0.523                  -0.275728        -132.907          -60.324        -158.494         -60.3271        -158.434      -0.00796772         149.644
0.524                  -0.284945        -133.392         -60.1865        -160.556         -60.1898        -160.495      -0.00803765         149.577
0.525                  -0.294499        -133.879         -60.0444        -162.632          -60.048         -162.57      -0.00810867          149.51
0.526                  -0.304394        -134.369         -59.8979        -164.721         -59.9018        -164.658      -0.00818078         149.443
0.527                  -0.314636        -134.861          -59.747        -166.822          -59.751        -166.758      -0.00825399         149.376
0.528                  -0.325231        -135.357         -59.5915        -168.934         -59.5958         -168.87      -0.00832833         149.308
0.529                  -0.336182        -135.855         -59.4316        -171.057         -59.4361        -170.993      -0.00840382         149.241
0.53                   -0.347496        -136.355         -59.2673         -173.19          -59.272        -173.125      -0.00848046         149.173
0.531                  -0.359178        -136.858         -59.0987        -175.333         -59.1035        -175.268      -0.00855827         149.106
0.532                  -0.371233        -137.364         -58.9257        -177.484         -58.9308        -177.419      -0.00863728         149.038
0.533                  -0.383665        -137.872         -58.7486        -179.643         -58.7538        -179.578       -0.0087175          148.97
0.534                  -0.396481        -138.383         -58.5672         178.191         -58.5726         178.256      -0.00879894         148.902
0.535                  -0.409685        -138.896         -58.3818         176.018         -58.3873         176.082      -0.00888162         148.834
0.536                  -0.423284        -139.412         -58.1925         173.839         -58.1981         173.903      -0.00896556         148.766
0.537                  -0.437281         -139.93         -57.9993         171.654          -58.005         171.717      -0.00905078         148.698
0.538                  -0.451682        -140.452         -57.8023         169.463         -57.8081         169.526      -0.00913729         148.629
0.539                  -0.466493        -140.975         -57.6017         167.268         -57.6076         167.329      -0.00922511         148.561
0.54                   -0.481719        -141.501         -57.3976         165.068         -57.4036         165.128      -0.00931426         148.492
0.541                  -0.497364         -142.03         -57.1902         162.863         -57.1962         162.923      -0.00940476         148.423
0.542                  -0.513435        -142.561         -56.9795         160.655         -56.9855         160.713      -0.00949662         148.355
0.543                  -0.529936        -143.094         -56.7658         158.443         -56.7718           158.5      -0.00958986         148.286
0.544                  -0.546873         -143.63         -56.5491         156.226         -56.5551         156.282       -0.0096845         148.217
0.545                  -0.564251        -144.169         -56.3297         154.007         -56.3356         154.061      -0.00978056         148.148
0.546                  -0.582075         -144.71         -56.1077         151.783         -56.1136         151.836      -0.00987806         148.078
0.547                  -0.600351        -145.253         -55.8832         149.556          -55.889         149.607      -0.00997702         148.009
0.548                  -0.619083        -145.799         -55.6565         147.325         -55.6622         147.374       -0.0100774          147.94
0.549                  -0.638277        -146.347         -55.4277          145.09         -55.4332         145.138       -0.0101794          147.87
0.55                   -0.657938        -146.898         -55.1969         142.851         -55.2023         142.897       -0.0102828           147.8
0.551                  -0.678071        -147.451         -54.9644         140.608         -54.9697         140.652       -0.0103878         147.731
0.552                  -0.698681        -148.006         -54.7303          138.36         -54.7354         138.403       -0.0104943         147.661
0.553                  -0.719774        -148.564         -54.4948         136.108         -54.4998         136.149       -0.0106024         147.591
0.554                  -0.741355        -149.124         -54.2581         133.851         -54.2629          133.89       -0.0107121         147.521
0.555                  -0.763428        -149.686         -54.0204         131.589         -54.0249         131.626       -0.0108234          147.45
0.556                  -0.785999        -150.251         -53.7818         129.322         -53.7861         129.357       -0.0109363          147.38
0.557                  -0.809072        -150.817         -53.5426         127.049         -53.5467         127.082       -0.0110509         147.309
0.558                  -0.832654        -151.387         -53.3028          124.77         -53.3067         124.801       -0.0111671         147.239
0.559                  -0.856749        -151.958         -53.0629         122.485         -53.0664         122.514       -0.0112851         147.168
0.56                   -0.881362        -152.532         -52.8228         120.193         -52.8261          120.22       -0.0114047         147.097
0.561                  -0.906497        -153.108         -52.5827         117.894         -52.5858         117.919       -0.0115261         147.026
0.562                  -0.932161        -153.686          -52.343         115.589         -52.3458         115.611       -0.0116493         146.955
0.563                  -0.958358        -154.266         -52.1038         113.275         -52.1062         113.296       -0.0117742         146.884
0.564                  -0.985093        -154.848         -51.8652         110.955         -51.8673         110.973        -0.011901         146.812
0.565                   -1.01237        -155.433         -51.6274         108.627         -51.6293         108.643       -0.0120296         146.741
0.566                    -1.0402         -156.02         -51.3907          106.29         -51.3922         106.304         -0.01216         146.669
0.567                   -1.06857        -156.608         -51.1552         103.946         -51.1564         103.958       -0.0122923         146.597
0.568                   -1.09751        -157.199         -50.9211         101.594          -50.922         101.603       -0.0124265         146.525
0.569                   -1.12701        -157.792         -50.6886         99.2334         -50.6892         99.2407       -0.0125626         146.453
0.57                    -1.15707        -158.387         -50.4578         96.8649         -50.4582         96.8698       -0.0127007         146.381
0.571                   -1.18771        -158.984          -50.229         94.4883         -50.2291         94.4909       -0.0128407         146.309
0.572                   -1.21892        -159.583         -50.0024         92.1039         -50.0021         92.1041       -0.0129827         146.236
0.573                   -1.25072        -160.184          -49.778         89.7117         -49.7775         89.7096       -0.0131268         146.164
0.574                    -1.2831        -160.787         -49.5561          87.312         -49.5553         87.3075       -0.0132729         146.091
0.575                   -1.31608        -161.392         -49.3368         84.9052         -49.3357         84.8983       -0.0134211         146.018
0.576                   -1.34965        -161.999         -49.1203         82.4915          -49.119         82.4822       -0.0135713         145.945
0.577                   -1.38382        -162.608         -48.9068         80.0714         -48.9052         80.0597       -0.0137237         145.872
0.578                   -1.41859        -163.219         -48.6963         77.6454         -48.6944         77.6314       -0.0138783         145.798
0.579                   -1.45398        -163.832          -48.489          75.214         -48.4869         75.1976        -0.014035         145.725
0.58                    -1.48998        -164.446          -48.285         72.7779         -48.2827         72.7591        -0.014194         145.651
0.581                   -1.52661        -165.062         -48.0845         70.3376          -48.082         70.3165       -0.0143552         145.577
0.582                   -1.56385        -165.681         -47.8875         67.8939         -47.8848         67.8704       -0.0145186         145.503
0.583                   -1.60173        -166.301         -47.6942         65.4475         -47.6913         65.4217       -0.0146844         145.429
0.584                   -1.64024        -166.923         -47.5045         62.9993         -47.5014         62.9712       -0.0148525         145.355
0.585                   -1.67939        -167.546         -47.3187         60.5499         -47.3154         60.5196       -0.0150229         145.281
0.586                   -1.71919        -168.172         -47.1367         58.1004         -47.1333         58.0679       -0.0151957         145.206
0.587                   -1.75964        -168.799         -46.9586         55.6515          -46.955         55.6169        -0.015371         145.131
0.588                   -1.80074        -169.428         -46.7843         53.2042         -46.7807         53.1675       -0.0155487         145.056
0.589                   -1.84249        -170.058         -46.6141         50.7594         -46.6103         50.7207        -0.015729         144.981
0.59                    -1.88492         -170.69         -46.4477          48.318         -46.4439         48.2773       -0.0159117         144.906
0.591                   -1.92801        -171.324         -46.2853         45.8808         -46.2814         45.8383        -0.016097         144.831
0.592                   -1.97178         -171.96         -46.1267         43.4489         -46.1228         43.4045       -0.0162849         144.755
0.593                   -2.01622        -172.597          -45.972         41.0231          -45.968          40.977       -0.0164755         144.679
0.594                   -2.06136        -173.236         -45.8211         38.6042         -45.8171         38.5565       -0.0166687         144.603
0.595                   -2.10718        -173.877          -45.674         36.1931           -45.67         36.1438       -0.0168647         144.527
0.596                    -2.1537        -174.519         -45.5306         33.7905         -45.5266         33.7398       -0.0170634         144.451
0.597                   -2.20092        -175.163         -45.3907         31.3973         -45.3867         31.3453       -0.0172649         144.374
0.598                   -2.24884        -175.808         -45.2544         29.0142         -45.2504         28.9609       -0.0174692         144.297
0.599                   -2.29748        -176.455         -45.1215         26.6418         -45.1175         26.5874       -0.0176764         144.221
0.6                     -2.34684        -177.104         -44.9918         24.2807         -44.9879         24.2252       -0.0178865         144.144
0.601                   -2.39693        -177.754         -44.8654         21.9315         -44.8616         21.8751       -0.0180996         144.066
0.602                   -2.44774        -178.405          -44.742         19.5948         -44.7382         19.5375       -0.0183157         143.989
0.603                    -2.4993        -179.058         -44.6216         17.2709         -44.6179         17.2129       -0.0185349         143.911
0.604                   -2.55159        -179.713          -44.504         14.9602         -44.5003         14.9016       -0.0187572         143.833
0.605                   -2.60464         179.631          -44.389          12.663         -44.3855         12.6039       -0.0189826         143.755
0.606                   -2.65844         178.973         -44.2766         10.3798         -44.2731         10.3202       -0.0192113         143.677
0.607                   -2.71301         178.314         -44.1666         8.11052         -44.1632         8.05066       -0.0194432         143.599
0.608                   -2.76835         177.653         -44.0589         5.85548         -44.0556         5.79539       -0.0196784          143.52
0.609                   -2.82447         176.991         -43.9532         3.61473           -43.95         3.55452       -0.0199171         143.441
0.61                    -2.88138         176.327         -43.8496         1.38831         -43.8465         1.32808       -0.0201591         143.362
0.611                   -2.93908         175.662         -43.7478       -0.823771         -43.7448       -0.883947       -0.0204046         143.283
0.612                   -2.99758         174.996         -43.6477        -3.02159         -43.6448        -3.08161       -0.0206537         143.203
0.613                   -3.05689         174.328         -43.5492        -5.20524         -43.5464        -5.26503       -0.0209064         143.124
0.614                   -3.11703         173.658         -43.4521        -7.37488         -43.4494        -7.43436       -0.0211628         143.044
0.615                   -3.17799         172.987         -43.3564         -9.5307         -43.3538        -9.58979       -0.0214229         142.964
0.616                   -3.23979         172.315         -43.2618        -11.6729         -43.2593        -11.7315       -0.0216868         142.883
0.617                   -3.30244         171.641         -43.1683        -13.8018         -43.1659        -13.8599       -0.0219545         142.803
0.618                   -3.36594         170.966         -43.0757        -15.9177         -43.0734        -15.9752       -0.0222263         142.722
0.619                   -3.43032         170.289          -42.984        -18.0209         -42.9818        -18.0777        -0.022502         142.641
0.62                    -3.49557         169.611          -42.893        -20.1117         -42.8909        -20.1678       -0.0227819         142.559
0.621                   -3.56171         168.932         -42.8026        -22.1906         -42.8005        -22.2459       -0.0230659         142.478
0.622                   -3.62876         168.251         -42.7127        -24.2579         -42.7107        -24.3124       -0.0233542         142.396
0.623                   -3.69672         167.568         -42.6232        -26.3141         -42.6213        -26.3677       -0.0236469         142.314
0.624                    -3.7656         166.884          -42.534        -28.3596         -42.5322        -28.4123       -0.0239439         142.232
0.625                   -3.83543         166.199         -42.4451        -30.3949         -42.4434        -30.4466       -0.0242455         142.149
0.626                   -3.90621         165.512         -42.3562        -32.4204         -42.3546        -32.4712       -0.0245517         142.066
0.627                   -3.97796         164.824         -42.2675        -34.4367          -42.266        -34.4864       -0.0248626         141.983
0.628                   -4.05069         164.135         -42.1787        -36.4441         -42.1773        -36.4928       -0.0251783           141.9
0.629                   -4.12442         163.444         -42.0899        -38.4433         -42.0885        -38.4908       -0.0254989         141.816
0.63                    -4.19917         162.752         -42.0009        -40.4347         -41.9996        -40.4811       -0.0258245         141.732
0.631                   -4.27494         162.058         -41.9116        -42.4188         -41.9104         -42.464       -0.0261553         141.648
0.632                   -4.35176         161.363         -41.8221        -44.3961          -41.821        -44.4402       -0.0264912         141.564
0.633                   -4.42966         160.666         -41.7323        -46.3672         -41.7312        -46.4101       -0.0268326         141.479
0.634                   -4.50863         159.968          -41.642        -48.3326          -41.641        -48.3743       -0.0271794         141.394
0.635                   -4.58872         159.269         -41.5514        -50.2928         -41.5504        -50.3333       -0.0275317         141.309
0.636                   -4.66993         158.568         -41.4602        -52.2482         -41.4592        -52.2875       -0.0278898         141.223
0.637                   -4.75228         157.866         -41.3685        -54.1995         -41.3676        -54.2375       -0.0282538         141.137
0.638                   -4.83581         157.163         -41.2762        -56.1471         -41.2754        -56.1839       -0.0286238         141.051
0.639                   -4.92054         156.458         -41.1834        -58.0916         -41.1826        -58.1271       -0.0289999         140.965
0.64                    -5.00648         155.752         -41.0899        -60.0333         -41.0891        -60.0677       -0.0293823         140.878
0.641                   -5.09367         155.045         -40.9957         -61.973          -40.995         -62.006       -0.0297711         140.791
0.642                   -5.18213         154.336         -40.9008        -63.9109         -40.9002        -63.9428       -0.0301665         140.703
0.643                   -5.27189         153.626         -40.8053        -65.8477         -40.8047        -65.8783       -0.0305687         140.616
0.644                   -5.36299         152.915          -40.709        -67.7838         -40.7084        -67.8132       -0.0309779         140.527
0.645                   -5.45544         152.202         -40.6119        -69.7197         -40.6114        -69.7478       -0.0313941         140.439
0.646                   -5.54928         151.488         -40.5141        -71.6558         -40.5136        -71.6828       -0.0318176          140.35
0.647                   -5.64455         150.774         -40.4156        -73.5927         -40.4151        -73.6184       -0.0322487         140.261
0.648                   -5.74129         150.058         -40.3162        -75.5307         -40.3157        -75.5553       -0.0326874         140.172
0.649                   -5.83952         149.341         -40.2161        -77.4704         -40.2156        -77.4938       -0.0331339         140.082
0.65                    -5.93928         148.622         -40.1151        -79.4121         -40.1147        -79.4343       -0.0335886         139.992
0.651                   -6.04063         147.903         -40.0134        -81.3563          -40.013        -81.3774       -0.0340516         139.902
0.652                   -6.14359         147.183         -39.9108        -83.3035         -39.9105        -83.3234       -0.0345231         139.811
0.653                   -6.24821         146.462         -39.8075         -85.254         -39.8072        -85.2728       -0.0350034          139.72
0.654                   -6.35455         145.741         -39.7034        -87.2082         -39.7031        -87.2259       -0.0354926         139.628
0.655                   -6.46264         145.018         -39.5986        -89.1665         -39.5983        -89.1832       -0.0359911         139.536
0.656                   -6.57253         144.295         -39.4929        -91.1294         -39.4926         -91.145       -0.0364992         139.444
0.657                   -6.68429         143.572         -39.3866        -93.0971         -39.3863        -93.1117       -0.0370169         139.351
0.658                   -6.79796         142.848         -39.2795        -95.0701         -39.2792        -95.0837       -0.0375447         139.258
0.659                    -6.9136         142.124         -39.1716        -97.0487         -39.1714        -97.0613       -0.0380828         139.164
0.66                    -7.03127           141.4         -39.0631        -99.0332         -39.0629        -99.0449       -0.0386315          139.07
0.661                   -7.15104         140.676          -38.954        -101.024         -38.9537        -101.035       -0.0391911         138.976
0.662                   -7.27297         139.952         -38.8442        -103.021         -38.8439        -103.031       -0.0397619         138.881
0.663                   -7.39713         139.228         -38.7337        -105.025         -38.7335        -105.034       -0.0403441         138.786
0.664                   -7.52359         138.505         -38.6227        -107.037         -38.6225        -107.045       -0.0409382         138.691
0.665                   -7.65243         137.783         -38.5112        -109.056          -38.511        -109.063       -0.0415444         138.595
0.666                   -7.78372         137.062         -38.3991        -111.082         -38.3989        -111.089        -0.042163         138.498
0.667                   -7.91755         136.343         -38.2865        -113.116         -38.2863        -113.122       -0.0427945         138.401
0.668                   -8.05401         135.625         -38.1735        -115.159         -38.1733        -115.164        -0.043439         138.304
0.669                   -8.19318         134.909         -38.0601         -117.21         -38.0599        -117.214       -0.0440971         138.206
0.67                    -8.33516         134.196         -37.9463        -119.269         -37.9462        -119.273       -0.0447689         138.108
0.671                   -8.48004         133.486         -37.8323        -121.337         -37.8321         -121.34        -0.045455         138.009
0.672                   -8.62794         132.778         -37.7179        -123.413         -37.7177        -123.416       -0.0461555          137.91
0.673                   -8.77895         132.075         -37.6033        -125.499         -37.6032        -125.501        -0.046871          137.81
0.674                   -8.93319         131.376         -37.4886        -127.594         -37.4884        -127.595       -0.0476017          137.71
0.675                   -9.09078         130.682         -37.3737        -129.698         -37.3735        -129.699       -0.0483481         137.609
0.676                   -9.25183         129.994         -37.2588        -131.811         -37.2586        -131.811       -0.0491104         137.508
0.677                   -9.41648         129.312         -37.1438        -133.933         -37.1436        -133.933        -0.049889         137.406
0.678                   -9.58485         128.637         -37.0289        -136.064         -37.0287        -136.064       -0.0506843         137.304
0.679                   -9.75708          127.97         -36.9141        -138.205         -36.9139        -138.204       -0.0514967         137.201
0.68                    -9.93331         127.312         -36.7994        -140.355         -36.7992        -140.354       -0.0523264         137.098
0.681                   -10.1137         126.665         -36.6849        -142.514         -36.6847        -142.512       -0.0531738         136.994
0.682                   -10.2984         126.029         -36.5707        -144.682         -36.5705         -144.68       -0.0540392          136.89
0.683                   -10.4875         125.405         -36.4568        -146.859         -36.4566        -146.857        -0.054923         136.785
0.684                   -10.6812         124.795         -36.3432        -149.044          -36.343        -149.042       -0.0558254          136.68
0.685                   -10.8798         124.202         -36.2301        -151.238         -36.2299        -151.236       -0.0567468         136.574
0.686                   -11.0832         123.625         -36.1175        -153.441         -36.1172        -153.439       -0.0576873         136.467
0.687                   -11.2918         123.068         -36.0054        -155.652         -36.0051        -155.649       -0.0586472          136.36
0.688                   -11.5056         122.532         -35.8938        -157.871         -35.8936        -157.868       -0.0596269         136.252
0.689                   -11.7249          122.02         -35.7829        -160.097         -35.7827        -160.094       -0.0606264         136.144
0.69                    -11.9498         121.535         -35.6727        -162.331         -35.6725        -162.328        -0.061646         136.035
0.691                   -12.1805         121.079         -35.5632        -164.572          -35.563        -164.569       -0.0626858         135.925
0.692                   -12.4171         120.655         -35.4546        -166.819         -35.4543        -166.817        -0.063746         135.815
0.693                   -12.6597         120.267         -35.3467        -169.073         -35.3464        -169.071       -0.0648268         135.704
0.694                   -12.9085         119.919         -35.2397        -171.333         -35.2394         -171.33       -0.0659282         135.593
0.695                   -13.1636         119.614         -35.1335        -173.599         -35.1333        -173.596       -0.0670503         135.481
0.696                    -13.425         119.359         -35.0283        -175.869         -35.0281        -175.867       -0.0681932         135.368
0.697                   -13.6928         119.157         -34.9241        -178.144         -34.9239        -178.142       -0.0693569         135.255