! TOUCHSTONE file generated by CST MICROWAVE STUDIO
! Date and time: Fri Oct  2 19:14:33 2020
! Project name: Scenario_1_Free_Space_out_of_line.cst
! Parameters = {Lambda=346.42; Step_1=17.321; dy1=-68.544; dx1=866; L_HA=400; MT=2.54; Rad_Dielectric=30; Rad_Lower=7.3; Rad_Upper=30; a_HA=580; a_WG=246; b_HA=500; b_WG=121; c_HA=0; c_WG=187; d_feed=85; h_feed=15; h_lower=18; h_upper=40}
! Header version: 2018
! Port assignment regex: !\s*Touchstone port\s*([0-9]+)\s*=\s*(CST MWS port|CST DS port)\s*([0-9]+|Zmin|Zmax)\s*\(\"(.*)\"\)(\s*mode\s*([0-9]+))?.*
! Touchstone port assignment:
! Touchstone port 1 = CST MWS port 1 ("")
! Touchstone port 2 = CST MWS port 2 ("")
# GHz S DB R 50
0.5                    -0.148214        -122.398         -63.1574         143.775         -63.1574         143.775      -0.00654663         151.114
0.501                  -0.154048        -122.853         -62.9553          141.78         -62.9559         141.778      -0.00661405         151.049
0.502                  -0.160113        -123.309         -62.7531         139.777         -62.7542         139.773       -0.0066823         150.983
0.503                  -0.166412        -123.767         -62.5508         137.765         -62.5524          137.76      -0.00675138         150.918
0.504                  -0.172946        -124.226         -62.3484         135.745         -62.3506         135.738      -0.00682128         150.852
0.505                  -0.179718        -124.687         -62.1461         133.717         -62.1488         133.708      -0.00689202         150.787
0.506                  -0.186729         -125.15         -61.9439         131.678         -61.9469         131.668       -0.0069636         150.721
0.507                  -0.193981        -125.615         -61.7417         129.631         -61.7451         129.619      -0.00703603         150.655
0.508                  -0.201477        -126.081         -61.5396         127.573         -61.5434          127.56      -0.00710929         150.589
0.509                  -0.209217        -126.549         -61.3376         125.505         -61.3418         125.491      -0.00718341         150.523
0.51                   -0.217204        -127.018         -61.1359         123.426         -61.1404         123.411      -0.00725838         150.457
0.511                  -0.225439        -127.489         -60.9344         121.337         -60.9392         121.321      -0.00733421         150.391
0.512                  -0.233925        -127.962         -60.7331         119.236         -60.7382         119.219      -0.00741089         150.325
0.513                  -0.242662        -128.436         -60.5321         117.125         -60.5375         117.106      -0.00748845         150.259
0.514                  -0.251653        -128.912         -60.3315         115.001         -60.3371         114.982      -0.00756687         150.193
0.515                    -0.2609         -129.39         -60.1313         112.866          -60.137         112.846      -0.00764617         150.126
0.516                  -0.270405        -129.869         -59.9314         110.719         -59.9374         110.698      -0.00772635          150.06
0.517                  -0.280168         -130.35         -59.7321          108.56         -59.7382         108.539       -0.0078074         149.993
0.518                  -0.290192        -130.833         -59.5333         106.388         -59.5395         106.367      -0.00788935         149.927
0.519                  -0.300479        -131.317          -59.335         104.204         -59.3414         104.182      -0.00797219          149.86
0.52                    -0.31103        -131.803         -59.1374         102.008         -59.1438         101.985      -0.00805593         149.793
0.521                  -0.321847        -132.291         -58.9404         99.7984         -58.9469         99.7761      -0.00814056         149.726
0.522                  -0.332932        -132.781         -58.7441         97.5766         -58.7507         97.5542      -0.00822611         149.659
0.523                  -0.344286        -133.272         -58.5486         95.3421         -58.5552         95.3197      -0.00831256         149.592
0.524                  -0.355911        -133.764         -58.3539         93.0949         -58.3605         93.0725      -0.00839993         149.525
0.525                   -0.36781        -134.259           -58.16          90.835         -58.1667         90.8127      -0.00848823         149.458
0.526                  -0.379982        -134.755          -57.967         88.5624         -57.9737         88.5403      -0.00857745          149.39
0.527                  -0.392431        -135.253         -57.7751         86.2773         -57.7817         86.2554       -0.0086676         149.323
0.528                  -0.405158        -135.753         -57.5841         83.9796         -57.5907          83.958      -0.00875869         149.256
0.529                  -0.418165        -136.254         -57.3941         81.6696         -57.4007         81.6483      -0.00885073         149.188
0.53                   -0.431452        -136.757         -57.2053         79.3474         -57.2118         79.3265      -0.00894371          149.12
0.531                  -0.445023        -137.262         -57.0176         77.0131          -57.024         76.9926      -0.00903765         149.053
0.532                  -0.458878        -137.768         -56.8312         74.6669         -56.8375          74.647      -0.00913255         148.985
0.533                   -0.47302        -138.277          -56.646         72.3091         -56.6522         72.2897      -0.00922842         148.917
0.534                   -0.48745        -138.787         -56.4621         69.9399         -56.4681         69.9211      -0.00932526         148.849
0.535                  -0.502169        -139.299         -56.2795         67.5596         -56.2854         67.5415      -0.00942307         148.781
0.536                   -0.51718        -139.812         -56.0983         65.1686         -56.1041         65.1511      -0.00952188         148.712
0.537                  -0.532483        -140.327         -55.9186         62.7671         -55.9242         62.7502      -0.00962167         148.644
0.538                  -0.548082        -140.845         -55.7403         60.3555         -55.7458         60.3393      -0.00972246         148.576
0.539                  -0.563977        -141.364         -55.5635         57.9341         -55.5688         57.9187      -0.00982426         148.507
0.54                   -0.580171        -141.884         -55.3883         55.5034         -55.3934         55.4887      -0.00992706         148.438
0.541                  -0.596664        -142.407         -55.2146         53.0638         -55.2196         53.0498       -0.0100309          148.37
0.542                   -0.61346        -142.931         -55.0425         50.6157         -55.0473         50.6025       -0.0101357         148.301
0.543                  -0.630559        -143.457         -54.8721         48.1596         -54.8767         48.1472       -0.0102416         148.232
0.544                  -0.647964        -143.986         -54.7033          45.696         -54.7077         45.6842       -0.0103485         148.163
0.545                  -0.665676        -144.515         -54.5361         43.2253         -54.5403         43.2143       -0.0104565         148.094
0.546                  -0.683698        -145.047         -54.3706          40.748         -54.3746         40.7377       -0.0105655         148.024
0.547                  -0.702031        -145.581         -54.2068         38.2646         -54.2106          38.255       -0.0106756         147.955
0.548                  -0.720678        -146.117         -54.0447         35.7757         -54.0483         35.7668       -0.0107867         147.886
0.549                   -0.73964        -146.654         -53.8843         33.2817         -53.8877         33.2735        -0.010899         147.816
0.55                    -0.75892        -147.194         -53.7256         30.7832         -53.7287         30.7757       -0.0110123         147.746
0.551                  -0.778519        -147.735         -53.5686         28.2807         -53.5715         28.2739       -0.0111267         147.677
0.552                   -0.79844        -148.279         -53.4132         25.7747         -53.4159         25.7685       -0.0112421         147.607
0.553                  -0.818686        -148.825         -53.2595         23.2658          -53.262         23.2602       -0.0113587         147.537
0.554                  -0.839258        -149.372         -53.1075         20.7543         -53.1098         20.7493       -0.0114765         147.466
0.555                   -0.86016        -149.922         -52.9571          18.241         -52.9592         18.2365       -0.0115953         147.396
0.556                  -0.881393        -150.473         -52.8083         15.7262         -52.8102         15.7222       -0.0117153         147.326
0.557                  -0.902961        -151.027         -52.6611         13.2104         -52.6628         13.2069       -0.0118364         147.255
0.558                  -0.924866        -151.583         -52.5154         10.6941         -52.5169         10.6911       -0.0119586         147.185
0.559                  -0.947111        -152.141         -52.3713         8.17774         -52.3725         8.17518        -0.012082         147.114
0.56                     -0.9697        -152.702         -52.2286         5.66178         -52.2297         5.65962       -0.0122066         147.043
0.561                  -0.992635        -153.264         -52.0873         3.14662         -52.0882         3.14483       -0.0123324         146.972
0.562                   -1.01592        -153.829         -51.9475        0.632659         -51.9482        0.631222       -0.0124593         146.901
0.563                   -1.03956        -154.396          -51.809        -1.87972         -51.8095        -1.88084       -0.0125874          146.83
0.564                   -1.06355        -154.965         -51.6718        -4.39015         -51.6722        -4.39099       -0.0127167         146.759
0.565                   -1.08791        -155.537         -51.5359        -6.89832         -51.5361         -6.8989       -0.0128473         146.687
0.566                   -1.11263        -156.111         -51.4011         -9.4039         -51.4012        -9.40425       -0.0129791         146.616
0.567                   -1.13772        -156.688         -51.2676        -11.9066         -51.2675        -11.9067       -0.0131121         146.544
0.568                   -1.16319        -157.267         -51.1351        -14.4062         -51.1349        -14.4061       -0.0132463         146.472
0.569                   -1.18903        -157.848         -51.0037        -16.9024         -51.0034        -16.9022       -0.0133818           146.4
0.57                    -1.21525        -158.432         -50.8733         -19.395         -50.8728        -19.3947       -0.0135185         146.328
0.571                   -1.24187        -159.019         -50.7438        -21.8838         -50.7433        -21.8834       -0.0136566         146.255
0.572                   -1.26888        -159.608         -50.6153        -24.3687         -50.6146        -24.3682       -0.0137959         146.183
0.573                   -1.29629          -160.2         -50.4875        -26.8496         -50.4868        -26.8489       -0.0139365         146.111
0.574                   -1.32411        -160.794         -50.3606        -29.3262         -50.3598        -29.3255       -0.0140784         146.038
0.575                   -1.35234        -161.392         -50.2344        -31.7985         -50.2335        -31.7978       -0.0142217         145.965
0.576                     -1.381        -161.992         -50.1089        -34.2664         -50.1079        -34.2657       -0.0143662         145.892
0.577                   -1.41008        -162.595         -49.9841        -36.7299          -49.983        -36.7292       -0.0145122         145.819
0.578                    -1.4396        -163.201         -49.8598         -39.189         -49.8587        -39.1882       -0.0146595         145.746
0.579                   -1.46957         -163.81         -49.7361        -41.6436         -49.7349        -41.6429       -0.0148082         145.672
0.58                    -1.49998        -164.422         -49.6129        -44.0938         -49.6116         -44.093       -0.0149582         145.599
0.581                   -1.53087        -165.038         -49.4901        -46.5395         -49.4888        -46.5388       -0.0151097         145.525
0.582                   -1.56223        -165.656         -49.3678        -48.9809         -49.3665        -48.9802       -0.0152627         145.451
0.583                   -1.59407        -166.278         -49.2458        -51.4179         -49.2445        -51.4173        -0.015417         145.377
0.584                   -1.62641        -166.903         -49.1242        -53.8508         -49.1228        -53.8501       -0.0155729         145.303
0.585                   -1.65926        -167.531         -49.0028        -56.2794         -49.0015        -56.2789       -0.0157303         145.228
0.586                   -1.69264        -168.162         -48.8818        -58.7041         -48.8804        -58.7036       -0.0158892         145.154
0.587                   -1.72655        -168.798         -48.7609        -61.1248         -48.7595        -61.1243       -0.0160496         145.079
0.588                   -1.76101        -169.436         -48.6403        -63.5417         -48.6389        -63.5413       -0.0162117         145.004
0.589                   -1.79603        -170.079         -48.5198         -65.955         -48.5185        -65.9546       -0.0163754         144.929
0.59                    -1.83164        -170.725         -48.3995        -68.3647         -48.3982        -68.3644       -0.0165407         144.854
0.591                   -1.86785        -171.374         -48.2794        -70.7711          -48.278        -70.7709       -0.0167078         144.779
0.592                   -1.90468        -172.028         -48.1593        -73.1744          -48.158        -73.1742       -0.0168766         144.703
0.593                   -1.94215        -172.685         -48.0394        -75.5746         -48.0381        -75.5745       -0.0170472         144.628
0.594                   -1.98028        -173.347         -47.9195         -77.972         -47.9182        -77.9719       -0.0172197         144.552
0.595                   -2.01909        -174.012         -47.7997        -80.3667         -47.7984        -80.3666       -0.0173942         144.476
0.596                   -2.05861        -174.682         -47.6799        -82.7589         -47.6787        -82.7589       -0.0175707         144.399
0.597                   -2.09885        -175.355         -47.5602        -85.1488          -47.559        -85.1489       -0.0177493         144.323
0.598                   -2.13986        -176.033         -47.4405        -87.5367         -47.4393        -87.5367       -0.0179301         144.246
0.599                   -2.18164        -176.715         -47.3208        -89.9225         -47.3197        -89.9226       -0.0181131         144.169
0.6                     -2.22424        -177.401         -47.2012        -92.3067         -47.2001        -92.3068       -0.0182986         144.092
0.601                   -2.26768        -178.092         -47.0815        -94.6892         -47.0805        -94.6894       -0.0184867         144.015
0.602                   -2.31199        -178.787         -46.9619        -97.0704          -46.961        -97.0706       -0.0186774         143.938
0.603                   -2.35721        -179.486         -46.8424        -99.4504         -46.8415        -99.4506       -0.0188709          143.86
0.604                   -2.40337          179.81         -46.7229        -101.829          -46.722         -101.83       -0.0190674         143.782
0.605                   -2.45051         179.101         -46.6034        -104.207         -46.6025        -104.208        -0.019267         143.704
0.606                   -2.49867         178.389         -46.4839        -106.585         -46.4831        -106.585         -0.01947         143.626
0.607                   -2.54788         177.671         -46.3645        -108.962         -46.3638        -108.962       -0.0196766         143.548
0.608                    -2.5982          176.95         -46.2452        -111.338         -46.2445        -111.338       -0.0198868         143.469
0.609                   -2.64965         176.223          -46.126        -113.714         -46.1253        -113.715       -0.0201011          143.39
0.61                    -2.70229         175.493         -46.0068        -116.091         -46.0062        -116.091       -0.0203195         143.311
0.611                   -2.75616         174.758         -45.8878        -118.467         -45.8872        -118.467       -0.0205423         143.232
0.612                   -2.81131         174.019         -45.7688        -120.843         -45.7683        -120.843       -0.0207698         143.152
0.613                   -2.86779         173.276         -45.6501         -123.22         -45.6496         -123.22       -0.0210021         143.072
0.614                   -2.92565         172.528         -45.5314        -125.596          -45.531        -125.597       -0.0212394         142.992
0.615                   -2.98493         171.777          -45.413        -127.974         -45.4125        -127.974        -0.021482         142.912
0.616                   -3.04569         171.022         -45.2947        -130.352         -45.2943        -130.352       -0.0217301         142.832
0.617                   -3.10798         170.263         -45.1766         -132.73         -45.1763         -132.73       -0.0219837         142.751
0.618                   -3.17186         169.501         -45.0588        -135.109         -45.0585         -135.11       -0.0222431          142.67
0.619                   -3.23738         168.736         -44.9412        -137.489         -44.9409         -137.49       -0.0225083         142.589
0.62                    -3.30458         167.968         -44.8239         -139.87         -44.8236         -139.87       -0.0227794         142.507
0.621                   -3.37352         167.197         -44.7068        -142.252         -44.7066        -142.252       -0.0230564         142.426
0.622                   -3.44425         166.424         -44.5901        -144.634         -44.5899        -144.634       -0.0233394         142.344
0.623                   -3.51682         165.649         -44.4737        -147.017         -44.4735        -147.017       -0.0236283         142.262
0.624                   -3.59127         164.872         -44.3576        -149.401         -44.3575        -149.401        -0.023923         142.179
0.625                   -3.66765         164.094         -44.2419        -151.786         -44.2418        -151.786       -0.0242234         142.097
0.626                   -3.74601         163.316         -44.1266        -154.172         -44.1265        -154.172       -0.0245294         142.014
0.627                   -3.82637         162.537         -44.0117        -156.558         -44.0116        -156.558       -0.0248409         141.931
0.628                   -3.90878         161.758         -43.8971        -158.945         -43.8971        -158.945       -0.0251578         141.848
0.629                   -3.99326          160.98          -43.783        -161.333          -43.783        -161.333       -0.0254799         141.764
0.63                    -4.07984         160.203         -43.6694        -163.722         -43.6694        -163.722       -0.0258069          141.68
0.631                   -4.16854         159.428         -43.5562        -166.111         -43.5562        -166.111       -0.0261389         141.596
0.632                   -4.25937         158.656         -43.4435          -168.5         -43.4435          -168.5       -0.0264756         141.512
0.633                   -4.35234         157.886         -43.3312         -170.89         -43.3312         -170.89        -0.026817         141.427
0.634                   -4.44745          157.12         -43.2194        -173.281         -43.2195        -173.281       -0.0271629         141.342
0.635                   -4.54468         156.358         -43.1082        -175.671         -43.1082        -175.671       -0.0275133         141.257
0.636                   -4.64404         155.601         -42.9974        -178.062         -42.9974        -178.062       -0.0278682         141.172
0.637                   -4.74548          154.85         -42.8871         179.547         -42.8871         179.547       -0.0282275         141.086
0.638                     -4.849         154.104         -42.7773         177.157         -42.7774         177.157       -0.0285911             141
0.639                   -4.95454         153.365         -42.6681         174.766         -42.6681         174.766       -0.0289593         140.913
0.64                    -5.06206         152.633         -42.5593         172.376         -42.5594         172.376       -0.0293319         140.827
0.641                   -5.17151         151.909         -42.4511         169.986         -42.4511         169.986       -0.0297092          140.74
0.642                   -5.28283         151.194         -42.3433         167.597         -42.3434         167.597       -0.0300911         140.653
0.643                   -5.39596         150.487         -42.2361         165.209         -42.2361         165.208       -0.0304778         140.565
0.644                   -5.51082         149.789         -42.1293         162.821         -42.1294         162.821       -0.0308695         140.477
0.645                   -5.62734           149.1         -42.0231         160.434         -42.0231         160.434       -0.0312663         140.389
0.646                   -5.74544         148.422         -41.9173         158.048         -41.9173         158.048       -0.0316684           140.3
0.647                   -5.86504         147.754         -41.8119         155.663          -41.812         155.663        -0.032076         140.211
0.648                   -5.98604         147.096         -41.7071          153.28         -41.7071         153.279       -0.0324893         140.122
0.649                   -6.10836         146.448         -41.6026         150.897         -41.6026         150.897       -0.0329084         140.033
0.65                    -6.23191         145.811         -41.4986         148.516         -41.4986         148.516       -0.0333337         139.943
0.651                   -6.35662         145.185         -41.3949         146.137          -41.395         146.136       -0.0337654         139.852
0.652                   -6.48238          144.57         -41.2917         143.759         -41.2917         143.758       -0.0342036         139.762
0.653                   -6.60912         143.965         -41.1888         141.383         -41.1888         141.382       -0.0346487         139.671
0.654                   -6.73676          143.37         -41.0863         139.008         -41.0863         139.007        -0.035101         139.579
0.655                   -6.86523         142.786          -40.984         136.635          -40.984         136.634       -0.0355606         139.487
0.656                   -6.99446         142.211         -40.8821         134.264         -40.8821         134.263       -0.0360279         139.395
0.657                   -7.12439         141.647         -40.7805         131.895         -40.7805         131.894       -0.0365032         139.303
0.658                   -7.25497         141.091         -40.6791         129.528         -40.6791         129.526       -0.0369868          139.21
0.659                   -7.38614         140.545         -40.5779         127.162         -40.5779         127.161       -0.0374789         139.116
0.66                    -7.51788         140.008         -40.4769         124.799         -40.4769         124.797         -0.03798         139.022
0.661                   -7.65016         139.478         -40.3761         122.437         -40.3761         122.436       -0.0384903         138.928
0.662                   -7.78295         138.957         -40.2754         120.078         -40.2754         120.076       -0.0390101         138.833
0.663                   -7.91625         138.443         -40.1749          117.72         -40.1749         117.718       -0.0395399         138.738
0.664                   -8.05005         137.936         -40.0745         115.364         -40.0744         115.362       -0.0400799         138.643
0.665                   -8.18436         137.436         -39.9741          113.01         -39.9741         113.008       -0.0406305         138.547
0.666                   -8.31921         136.942         -39.8738         110.657         -39.8737         110.656       -0.0411922          138.45
0.667                   -8.45462         136.454         -39.7735         108.307         -39.7734         108.305       -0.0417652         138.354
0.668                   -8.59063         135.971         -39.6732         105.958         -39.6731         105.956       -0.0423501         138.256
0.669                   -8.72728         135.494         -39.5728         103.611         -39.5728         103.609       -0.0429471         138.158
0.67                    -8.86462         135.021         -39.4724         101.265         -39.4724         101.263       -0.0435568          138.06
0.671                   -9.00272         134.553         -39.3719         98.9203         -39.3719         98.9185       -0.0441795         137.961
0.672                   -9.14164         134.089         -39.2714         96.5771         -39.2713         96.5753       -0.0448157         137.862
0.673                   -9.28146         133.629         -39.1707         94.2351         -39.1707         94.2332        -0.045466         137.762
0.674                   -9.42226         133.173         -39.0699         91.8941         -39.0698         91.8922       -0.0461306         137.662
0.675                   -9.56413         132.721         -38.9689          89.554         -38.9688         89.5522       -0.0468102         137.561
0.676                   -9.70717         132.273         -38.8677         87.2147         -38.8677         87.2129       -0.0475053          137.46
0.677                   -9.85147         131.829         -38.7663          84.876         -38.7663         84.8742       -0.0482163         137.358
0.678                   -9.99714         131.388         -38.6648         82.5378         -38.6648          82.536       -0.0489437         137.255
0.679                   -10.1443         130.952          -38.563         80.1999          -38.563         80.1981       -0.0496882         137.152
0.68                     -10.293         130.521          -38.461         77.8621         -38.4609         77.8604       -0.0504503         137.049
0.681                   -10.4435         130.094         -38.3587         75.5244         -38.3587         75.5227       -0.0512305         136.945
0.682                   -10.5958         129.672         -38.2562         73.1864         -38.2561         73.1847       -0.0520295          136.84
0.683                     -10.75         129.255         -38.1534         70.8481         -38.1534         70.8464       -0.0528478         136.735
0.684                   -10.9063         128.845         -38.0503         68.5092         -38.0503         68.5076       -0.0536861         136.629
0.685                   -11.0648         128.441          -37.947         66.1696          -37.947          66.168       -0.0545449         136.523
0.686                   -11.2257         128.044         -37.8434          63.829         -37.8434         63.8276       -0.0554249         136.416
0.687                    -11.389         127.656         -37.7395         61.4874         -37.7395          61.486       -0.0563268         136.308
0.688                    -11.555         127.277         -37.6354         59.1445         -37.6354         59.1431       -0.0572511           136.2
0.689                   -11.7236         126.908          -37.531         56.8001          -37.531         56.7988       -0.0581986         136.091
0.69                    -11.8952          126.55         -37.4263         54.4541         -37.4263         54.4529         -0.05917         135.981
0.691                   -12.0697         126.205         -37.3214         52.1062         -37.3214         52.1051       -0.0601659         135.871
0.692                   -12.2474         125.873         -37.2163         49.7564         -37.2163         49.7553       -0.0611869          135.76
0.693                   -12.4283         125.558         -37.1109         47.4043         -37.1109         47.4033       -0.0622339         135.649
0.694                   -12.6125         125.259         -37.0053         45.0499         -37.0053          45.049       -0.0633074         135.536
0.695                   -12.8002          124.98         -36.8995          42.693         -36.8995         42.6922       -0.0644081         135.424
0.696                   -12.9915         124.722         -36.7935         40.3335         -36.7935         40.3327       -0.0655369          135.31
0.697                   -13.1865         124.487         -36.6873         37.9711         -36.6873         37.9704       -0.0666942         135.196