! TOUCHSTONE file generated by CST MICROWAVE STUDIO
! Date and time: Fri Oct  2 18:58:03 2020
! Project name: Scenario_1_Free_Space_out_of_line.cst
! Parameters = {Lambda=346.42; Step_1=17.321; dy1=-68.544; dx1=1039; L_HA=400; MT=2.54; Rad_Dielectric=30; Rad_Lower=7.3; Rad_Upper=30; a_HA=580; a_WG=246; b_HA=500; b_WG=121; c_HA=0; c_WG=187; d_feed=85; h_feed=15; h_lower=18; h_upper=40}
! Header version: 2018
! Port assignment regex: !\s*Touchstone port\s*([0-9]+)\s*=\s*(CST MWS port|CST DS port)\s*([0-9]+|Zmin|Zmax)\s*\(\"(.*)\"\)(\s*mode\s*([0-9]+))?.*
! Touchstone port assignment:
! Touchstone port 1 = CST MWS port 1 ("")
! Touchstone port 2 = CST MWS port 2 ("")
# GHz S DB R 50
0.5                    -0.147664         -122.56         -63.5512         46.6929         -63.5512         46.6929       -0.0067511         151.081
0.501                  -0.151185            -123         -63.4461         44.5334         -63.4461         44.5336      -0.00679903         151.016
0.502                  -0.154964        -123.442         -63.3374         42.3519         -63.3374         42.3523      -0.00684789          150.95
0.503                  -0.159002        -123.887          -63.225         40.1487         -63.2251         40.1493      -0.00689771         150.885
0.504                  -0.163302        -124.334         -63.1089         37.9243          -63.109         37.9251      -0.00694849         150.819
0.505                  -0.167869        -124.783          -62.989         35.6792         -62.9892         35.6801      -0.00700025         150.753
0.506                  -0.172705        -125.234         -62.8654         33.4138         -62.8656         33.4149        -0.007053         150.688
0.507                  -0.177813        -125.687          -62.738         31.1286         -62.7382         31.1299      -0.00710676         150.622
0.508                  -0.183197        -126.143         -62.6067         28.8242          -62.607         28.8256      -0.00716153         150.556
0.509                  -0.188859          -126.6         -62.4716          26.501         -62.4719         26.5025      -0.00721732          150.49
0.51                   -0.194802         -127.06         -62.3327         24.1596          -62.333         24.1613      -0.00727417         150.424
0.511                   -0.20103        -127.522         -62.1899         21.8006         -62.1903         21.8023      -0.00733206         150.358
0.512                  -0.207546        -127.987         -62.0434         19.4244         -62.0438         19.4262      -0.00739103         150.291
0.513                  -0.214352        -128.453         -61.8931         17.0316         -61.8935         17.0335      -0.00745108         150.225
0.514                  -0.221453        -128.922          -61.739         14.6227         -61.7395         14.6248      -0.00751223         150.159
0.515                  -0.228851        -129.393         -61.5813         12.1983         -61.5818         12.2005      -0.00757449         150.092
0.516                  -0.236549        -129.866         -61.4199         9.75886         -61.4204         9.76111      -0.00763787         150.025
0.517                  -0.244551        -130.341          -61.255         7.30491         -61.2555         7.30724      -0.00770239         149.959
0.518                  -0.252859        -130.819         -61.0865         4.83692         -61.0871         4.83933      -0.00776806         149.892
0.519                  -0.261477        -131.298         -60.9147         2.35537         -60.9153         2.35785      -0.00783489         149.825
0.52                   -0.270408         -131.78         -60.7396       -0.139306         -60.7402       -0.136758      -0.00790291         149.758
0.521                  -0.279655        -132.264         -60.5612        -2.64668         -60.5618        -2.64406      -0.00797212         149.691
0.522                  -0.289221         -132.75         -60.3798        -5.16635         -60.3804        -5.16367      -0.00804253         149.624
0.523                  -0.299109        -133.238         -60.1954        -7.69793          -60.196         -7.6952      -0.00811417         149.557
0.524                  -0.309323        -133.729         -60.0081        -10.2411         -60.0087        -10.2383      -0.00818705         149.489
0.525                  -0.319865        -134.221         -59.8181        -12.7955         -59.8188        -12.7926      -0.00826117         149.422
0.526                  -0.330739        -134.716         -59.6256        -15.3609         -59.6262        -15.3579      -0.00833656         149.354
0.527                  -0.341947        -135.213         -59.4305        -17.9369         -59.4312        -17.9339      -0.00841323         149.287
0.528                  -0.353493        -135.712         -59.2332        -20.5234         -59.2339        -20.5203      -0.00849119         149.219
0.529                   -0.36538        -136.214         -59.0338          -23.12         -59.0344         -23.117      -0.00857047         149.151
0.53                   -0.377611        -136.717         -58.8324        -25.7267          -58.833        -25.7236      -0.00865106         149.084
0.531                  -0.390189        -137.222         -58.6292        -28.3432         -58.6298          -28.34        -0.008733         149.016
0.532                  -0.403117         -137.73         -58.4244        -30.9694          -58.425        -30.9661      -0.00881629         148.947
0.533                  -0.416399         -138.24         -58.2181        -33.6051         -58.2186        -33.6018      -0.00890094         148.879
0.534                  -0.430036        -138.752         -58.0105        -36.2501          -58.011        -36.2467      -0.00898698         148.811
0.535                  -0.444033        -139.266         -57.8018        -38.9044         -57.8023         -38.901      -0.00907443         148.743
0.536                  -0.458392        -139.782         -57.5921        -41.5679         -57.5927        -41.5644      -0.00916328         148.674
0.537                  -0.473117          -140.3         -57.3817        -44.2403         -57.3823        -44.2367      -0.00925357         148.605
0.538                  -0.488209        -140.821         -57.1708        -46.9217         -57.1713         -46.918       -0.0093453         148.537
0.539                  -0.503673        -141.343         -56.9594        -49.6118         -56.9599        -49.6081      -0.00943849         148.468
0.54                   -0.519512        -141.868         -56.7479        -52.3106         -56.7484        -52.3068      -0.00953317         148.399
0.541                  -0.535728        -142.395         -56.5363        -55.0179         -56.5368         -55.014      -0.00962933          148.33
0.542                  -0.552324        -142.924         -56.3249        -57.7335         -56.3253        -57.7296      -0.00972701         148.261
0.543                  -0.569303        -143.455         -56.1139        -60.4574         -56.1142        -60.4535       -0.0098262         148.192
0.544                  -0.586669        -143.988         -55.9033        -63.1893         -55.9037        -63.1853      -0.00992695         148.122
0.545                  -0.604423        -144.523         -55.6934         -65.929         -55.6938         -65.925       -0.0100292         148.053
0.546                   -0.62257         -145.06         -55.4844        -68.6763         -55.4847        -68.6722       -0.0101331         147.983
0.547                  -0.641113          -145.6         -55.2764         -71.431         -55.2767        -71.4268       -0.0102386         147.914
0.548                  -0.660053        -146.141         -55.0696        -74.1927         -55.0698        -74.1884       -0.0103457         147.844
0.549                  -0.679394        -146.685         -54.8641        -76.9611         -54.8643        -76.9568       -0.0104544         147.774
0.55                   -0.699139         -147.23         -54.6601        -79.7359         -54.6603        -79.7316       -0.0105647         147.704
0.551                  -0.719291        -147.778         -54.4578        -82.5168         -54.4579        -82.5124       -0.0106767         147.634
0.552                  -0.739853        -148.328         -54.2572        -85.3033         -54.2573        -85.2988       -0.0107904         147.564
0.553                  -0.760828         -148.88         -54.0585        -88.0949         -54.0586        -88.0905       -0.0109057         147.493
0.554                  -0.782219        -149.434         -53.8618        -90.8913         -53.8619        -90.8869       -0.0110228         147.423
0.555                  -0.804028         -149.99         -53.6673        -93.6919         -53.6673        -93.6875       -0.0111416         147.352
0.556                  -0.826259        -150.548          -53.475        -96.4963          -53.475        -96.4918       -0.0112622         147.281
0.557                  -0.848915        -151.109          -53.285        -99.3038          -53.285        -99.2993       -0.0113845         147.211
0.558                  -0.871999        -151.671         -53.0975        -102.114         -53.0974        -102.109       -0.0115086          147.14
0.559                  -0.895513        -152.235         -52.9124        -104.926         -52.9124        -104.922       -0.0116345         147.069
0.56                   -0.919461        -152.802         -52.7299         -107.74         -52.7298        -107.735       -0.0117622         146.997
0.561                  -0.943846        -153.371           -52.55        -110.554         -52.5499         -110.55       -0.0118917         146.926
0.562                  -0.968671        -153.941         -52.3728        -113.369         -52.3727        -113.364       -0.0120231         146.855
0.563                  -0.993938        -154.514         -52.1983        -116.183         -52.1982        -116.178       -0.0121564         146.783
0.564                   -1.01965        -155.089         -52.0265        -118.996         -52.0263        -118.992       -0.0122916         146.711
0.565                   -1.04582        -155.666         -51.8574        -121.808         -51.8572        -121.803       -0.0124286         146.639
0.566                   -1.07243        -156.246         -51.6911        -124.617         -51.6909        -124.612       -0.0125676         146.567
0.567                    -1.0995        -156.827         -51.5275        -127.423         -51.5272        -127.419       -0.0127086         146.495
0.568                   -1.12704        -157.411         -51.3666        -130.226         -51.3663        -130.222       -0.0128515         146.423
0.569                   -1.15503        -157.996         -51.2084        -133.025         -51.2081         -133.02       -0.0129964          146.35
0.57                    -1.18349        -158.584         -51.0528        -135.819         -51.0525        -135.815       -0.0131434         146.278
0.571                   -1.21242        -159.174         -50.8998        -138.608         -50.8995        -138.604       -0.0132923         146.205
0.572                   -1.24183        -159.766         -50.7494        -141.392         -50.7491        -141.388       -0.0134433         146.132
0.573                   -1.27171         -160.36         -50.6015        -144.169         -50.6012        -144.165       -0.0135964         146.059
0.574                   -1.30207        -160.957          -50.456        -146.941         -50.4557        -146.937       -0.0137516         145.986
0.575                   -1.33292        -161.556         -50.3129        -149.705         -50.3125        -149.701       -0.0139088         145.913
0.576                   -1.36425        -162.157         -50.1721        -152.462         -50.1717        -152.458       -0.0140682          145.84
0.577                   -1.39608         -162.76         -50.0334        -155.212          -50.033        -155.208       -0.0142298         145.766
0.578                   -1.42841        -163.366         -49.8969        -157.954         -49.8965        -157.951       -0.0143935         145.692
0.579                   -1.46124        -163.973         -49.7624        -160.689          -49.762        -160.685       -0.0145595         145.618
0.58                    -1.49458        -164.584         -49.6298        -163.415         -49.6294        -163.411       -0.0147276         145.544
0.581                   -1.52843        -165.196         -49.4991        -166.133         -49.4987         -166.13        -0.014898          145.47
0.582                   -1.56279        -165.811         -49.3701        -168.843         -49.3697        -168.839       -0.0150707         145.396
0.583                   -1.59768        -166.428         -49.2428        -171.544         -49.2424        -171.541       -0.0152456         145.321
0.584                   -1.63309        -167.048          -49.117        -174.237         -49.1166        -174.234       -0.0154229         145.247
0.585                   -1.66904         -167.67         -48.9926        -176.922         -48.9922        -176.919       -0.0156025         145.172
0.586                   -1.70553        -168.294         -48.8696        -179.599         -48.8692        -179.596       -0.0157844         145.097
0.587                   -1.74256        -168.921         -48.7479         177.733         -48.7475         177.736       -0.0159687         145.022
0.588                   -1.78014         -169.55         -48.6273         175.072          -48.627         175.075       -0.0161555         144.946
0.589                   -1.81828        -170.182         -48.5078          172.42         -48.5075         172.422       -0.0163446         144.871
0.59                    -1.85699        -170.817         -48.3893         169.775          -48.389         169.777       -0.0165362         144.795
0.591                   -1.89626        -171.454         -48.2717         167.137         -48.2713         167.139       -0.0167303         144.719
0.592                   -1.93612        -172.094         -48.1549         164.506         -48.1545         164.509       -0.0169269         144.643
0.593                   -1.97657        -172.736         -48.0388         161.883         -48.0385         161.885       -0.0171261         144.567
0.594                   -2.01762        -173.381         -47.9234         159.265          -47.923         159.268       -0.0173277         144.491
0.595                   -2.05927        -174.029         -47.8085         156.654         -47.8082         156.656        -0.017532         144.414
0.596                   -2.10154         -174.68         -47.6941         154.049         -47.6938         154.051       -0.0177389         144.338
0.597                   -2.14444        -175.334         -47.5802          151.45         -47.5799         151.452       -0.0179484         144.261
0.598                   -2.18797         -175.99         -47.4666         148.855         -47.4663         148.857       -0.0181606         144.184
0.599                   -2.23215         -176.65         -47.3533         146.266         -47.3531         146.268       -0.0183755         144.106
0.6                     -2.27699        -177.312         -47.2403         143.681         -47.2401         143.682       -0.0185931         144.029
0.601                    -2.3225        -177.978         -47.1275         141.099         -47.1273         141.101       -0.0188134         143.951
0.602                   -2.36871        -178.646         -47.0148         138.522         -47.0146         138.523       -0.0190365         143.873
0.603                   -2.41561        -179.318         -46.9023         135.948         -46.9021         135.949       -0.0192625         143.795
0.604                   -2.46322        -179.993         -46.7898         133.376         -46.7896         133.377       -0.0194913         143.717
0.605                   -2.51157         179.329         -46.6773         130.807         -46.6771         130.808       -0.0197229         143.638
0.606                   -2.56066         178.648         -46.5648          128.24         -46.5646         128.241       -0.0199575          143.56
0.607                   -2.61052         177.963         -46.4523         125.674         -46.4522         125.675        -0.020195         143.481
0.608                   -2.66117         177.275         -46.3398          123.11         -46.3396         123.111       -0.0204354         143.402
0.609                   -2.71261         176.583         -46.2271         120.546          -46.227         120.547       -0.0206789         143.322
0.61                    -2.76489         175.888         -46.1144         117.983         -46.1143         117.984       -0.0209254         143.243
0.611                     -2.818         175.189         -46.0016          115.42         -46.0014         115.421        -0.021175         143.163
0.612                   -2.87199         174.486         -45.8886         112.857         -45.8885         112.857       -0.0214277         143.083
0.613                   -2.92687          173.78         -45.7755         110.292         -45.7754         110.293       -0.0216835         143.003
0.614                   -2.98268          173.07         -45.6623         107.727         -45.6623         107.728       -0.0219426         142.923
0.615                   -3.03943         172.356          -45.549         105.161          -45.549         105.161       -0.0222049         142.842
0.616                   -3.09716         171.639         -45.4356         102.592         -45.4356         102.593       -0.0224704         142.761
0.617                    -3.1559         170.917         -45.3221         100.022          -45.322         100.023       -0.0227393          142.68
0.618                   -3.21567         170.191         -45.2084         97.4496         -45.2084         97.4499       -0.0230116         142.599
0.619                   -3.27653         169.462         -45.0947         94.8744         -45.0947         94.8747       -0.0232873         142.517
0.62                    -3.33849         168.728         -44.9809         92.2964         -44.9809         92.2967       -0.0235665         142.435
0.621                   -3.40161          167.99         -44.8671         89.7153         -44.8671         89.7155       -0.0238493         142.353
0.622                   -3.46592         167.248         -44.7532         87.1309         -44.7533         87.1311       -0.0241356         142.271
0.623                   -3.53146         166.502         -44.6394          84.543         -44.6394         84.5432       -0.0244256         142.188
0.624                   -3.59828         165.752         -44.5256         81.9514         -44.5256         81.9516       -0.0247194         142.105
0.625                   -3.66643         164.997         -44.4118          79.356         -44.4119         79.3561        -0.025017         142.022
0.626                   -3.73595         164.238         -44.2981         76.7566         -44.2982         76.7566       -0.0253185         141.939
0.627                    -3.8069         163.476         -44.1845         74.1531         -44.1846         74.1531        -0.025624         141.855
0.628                   -3.87933         162.709         -44.0711         71.5454         -44.0712         71.5453       -0.0259336         141.771
0.629                   -3.95331         161.938         -43.9579         68.9334          -43.958         68.9333       -0.0262475         141.687
0.63                    -4.02888         161.162         -43.8449         66.3171          -43.845          66.317       -0.0265658         141.602
0.631                   -4.10612         160.383         -43.7321         63.6964         -43.7323         63.6962       -0.0268886         141.518
0.632                   -4.18508           159.6         -43.6196         61.0713         -43.6198         61.0712       -0.0272161         141.432
0.633                   -4.26584         158.814         -43.5075          58.442         -43.5077         58.4418       -0.0275485         141.347
0.634                   -4.34847         158.024         -43.3958         55.8083         -43.3959         55.8081        -0.027886         141.261
0.635                   -4.43304          157.23         -43.2844         53.1704         -43.2846         53.1702       -0.0282288         141.175
0.636                   -4.51962         156.433         -43.1735         50.5283         -43.1737         50.5281       -0.0285773         141.089
0.637                   -4.60829         155.633          -43.063         47.8822         -43.0632          47.882       -0.0289318         141.002
0.638                   -4.69914         154.831         -42.9531         45.2323         -42.9533          45.232       -0.0292925         140.915
0.639                   -4.79224         154.026         -42.8438         42.5785          -42.844         42.5782         -0.02966         140.828
0.64                    -4.88767         153.219          -42.735         39.9212         -42.7352         39.9209       -0.0300347          140.74
0.641                   -4.98553         152.411         -42.6268         37.2605          -42.627         37.2602       -0.0304171         140.652
0.642                   -5.08589         151.601         -42.5193         34.5966         -42.5195         34.5963       -0.0308077         140.564
0.643                   -5.18883         150.791         -42.4124         31.9298         -42.4126         31.9295       -0.0312071         140.476
0.644                   -5.29445         149.981         -42.3062         29.2602         -42.3065           29.26        -0.031616         140.387
0.645                   -5.40283         149.172         -42.2008         26.5883          -42.201          26.588       -0.0320351         140.297
0.646                   -5.51404         148.363         -42.0961         23.9141         -42.0963         23.9139       -0.0324649         140.207
0.647                   -5.62816         147.557         -41.9922         21.2381         -41.9924         21.2379       -0.0329062         140.117
0.648                   -5.74527         146.754         -41.8891         18.5605         -41.8893         18.5603       -0.0333594         140.027
0.649                   -5.86544         145.954         -41.7867         15.8817         -41.7869         15.8814       -0.0338251         139.936
0.65                    -5.98872         145.159         -41.6852         13.2018         -41.6854         13.2016       -0.0343036         139.845
0.651                   -6.11517          144.37         -41.5844         10.5214         -41.5846         10.5212       -0.0347949         139.754
0.652                   -6.24485         143.588         -41.4845         7.84059         -41.4847         7.84038        -0.035299         139.662
0.653                   -6.37777         142.813         -41.3854         5.15981         -41.3856         5.15962       -0.0358154          139.57
0.654                   -6.51398         142.048         -41.2871         2.47936         -41.2873         2.47919       -0.0363435         139.477
0.655                   -6.65348         141.293         -41.1896       -0.200423         -41.1898        -0.20058       -0.0368824         139.384
0.656                   -6.79627          140.55         -41.0929        -2.87922         -41.0931        -2.87936       -0.0374309         139.291
0.657                   -6.94233          139.82          -40.997        -5.55672         -40.9972        -5.55684       -0.0379879         139.197
0.658                   -7.09162         139.105         -40.9019         -8.2326         -40.9021         -8.2327        -0.038552         139.104
0.659                   -7.24408         138.405         -40.8075        -10.9066         -40.8077        -10.9066       -0.0391222         139.009
0.66                    -7.39965         137.723         -40.7139        -13.5783          -40.714        -13.5784       -0.0396974         138.915
0.661                   -7.55823          137.06         -40.6209        -16.2476         -40.6211        -16.2476       -0.0402768         138.819
0.662                    -7.7197         136.416         -40.5287        -18.9141         -40.5288        -18.9141       -0.0408598         138.724
0.663                   -7.88392         135.795         -40.4371        -21.5775         -40.4373        -21.5775       -0.0414462         138.628
0.664                   -8.05073         135.196         -40.3461        -24.2377         -40.3463        -24.2377        -0.042036         138.532
0.665                   -8.21995         134.622         -40.2558        -26.8944         -40.2559        -26.8943       -0.0426295         138.435
0.666                   -8.39138         134.073          -40.166        -29.5473         -40.1661        -29.5473       -0.0432269         138.338
0.667                    -8.5648          133.55         -40.0767        -32.1964         -40.0768        -32.1963        -0.043829          138.24
0.668                   -8.73996         133.054         -39.9879        -34.8414          -39.988        -34.8413       -0.0444363         138.142
0.669                   -8.91662         132.587         -39.8995        -37.4821         -39.8996         -37.482       -0.0450498         138.043
0.67                     -9.0945         132.148         -39.8115        -40.1185         -39.8116        -40.1183         -0.04567         137.944
0.671                   -9.27332         131.738         -39.7239        -42.7503          -39.724        -42.7502       -0.0462979         137.844
0.672                    -9.4528         131.357         -39.6367        -45.3776         -39.6367        -45.3774       -0.0469343         137.744
0.673                   -9.63265         131.006         -39.5497        -48.0002         -39.5497             -48         -0.04758         137.643
0.674                   -9.81258         130.684         -39.4629         -50.618         -39.4629        -50.6178       -0.0482358         137.542
0.675                   -9.99231         130.391         -39.3763        -53.2311         -39.3763        -53.2309       -0.0489024          137.44
0.676                   -10.1716         130.126         -39.2898        -55.8394         -39.2899        -55.8392       -0.0495807         137.337
0.677                   -10.3501         129.888         -39.2035        -58.4428         -39.2035        -58.4426       -0.0502713         137.234
0.678                   -10.5276         129.677         -39.1172        -61.0415         -39.1172        -61.0413       -0.0509749         137.131
0.679                   -10.7039         129.492         -39.0309        -63.6355          -39.031        -63.6353       -0.0516923         137.026
0.68                    -10.8788          129.33         -38.9446        -66.2248         -38.9446        -66.2245       -0.0524242         136.921
0.681                   -11.0522         129.192         -38.8583        -68.8094         -38.8583        -68.8092       -0.0531713         136.816
0.682                   -11.2238         129.075         -38.7718        -71.3896         -38.7718        -71.3893       -0.0539343          136.71
0.683                   -11.3935         128.978         -38.6852        -73.9653         -38.6852         -73.965       -0.0547138         136.603
0.684                   -11.5614           128.9         -38.5984        -76.5367         -38.5983        -76.5364       -0.0555105         136.496
0.685                   -11.7272         128.838         -38.5113        -79.1039         -38.5113        -79.1037       -0.0563253         136.388
0.686                   -11.8911         128.791          -38.424        -81.6672          -38.424        -81.6669       -0.0571587         136.279
0.687                    -12.053         128.759         -38.3365        -84.2266         -38.3364        -84.2263       -0.0580116          136.17
0.688                   -12.2129         128.739         -38.2486        -86.7823         -38.2485         -86.782       -0.0588847          136.06
0.689                    -12.371         128.729         -38.1603        -89.3345         -38.1602        -89.3342       -0.0597788         135.949
0.69                    -12.5273          128.73         -38.0717        -91.8835         -38.0716        -91.8832       -0.0606946         135.837
0.691                   -12.6819         128.739         -37.9826        -94.4293         -37.9826        -94.4291       -0.0616331         135.725
0.692                    -12.835         128.756         -37.8932        -96.9723         -37.8931        -96.9721        -0.062595         135.612
0.693                   -12.9867          128.78         -37.8032        -99.5127         -37.8032        -99.5124       -0.0635812         135.498
0.694                   -13.1372          128.81         -37.7129        -102.051         -37.7128         -102.05       -0.0645926         135.384
0.695                   -13.2866         128.847          -37.622        -104.586         -37.6219        -104.586       -0.0656301         135.269
0.696                   -13.4352         128.889         -37.5306         -107.12         -37.5305         -107.12       -0.0666947         135.153
0.697                   -13.5832         128.937         -37.4386        -109.653         -37.4385        -109.652       -0.0677873         135.036