! TOUCHSTONE file generated by CST MICROWAVE STUDIO
! Date and time: Fri Oct  2 18:58:24 2020
! Project name: Scenario_1_Free_Space_out_of_line.cst
! Parameters = {Lambda=346.42; Step_1=17.321; dy1=-103.226; dx1=1039; L_HA=400; MT=2.54; Rad_Dielectric=30; Rad_Lower=7.3; Rad_Upper=30; a_HA=580; a_WG=246; b_HA=500; b_WG=121; c_HA=0; c_WG=187; d_feed=85; h_feed=15; h_lower=18; h_upper=40}
! Header version: 2018
! Port assignment regex: !\s*Touchstone port\s*([0-9]+)\s*=\s*(CST MWS port|CST DS port)\s*([0-9]+|Zmin|Zmax)\s*\(\"(.*)\"\)(\s*mode\s*([0-9]+))?.*
! Touchstone port assignment:
! Touchstone port 1 = CST MWS port 1 ("")
! Touchstone port 2 = CST MWS port 2 ("")
# GHz S DB R 50
0.5                     -0.14771        -122.526         -63.6939         46.5574         -63.6939         46.5574       -0.0067469         151.091
0.501                  -0.156751        -122.942         -63.5978         43.8435         -63.5978         43.8468      -0.00679307         151.026
0.502                   -0.16566        -123.359          -63.495         41.1262         -63.4951         41.1326      -0.00684032          150.96
0.503                  -0.174434        -123.777         -63.3857         38.4075         -63.3858         38.4168      -0.00688865         150.895
0.504                  -0.183071        -124.197         -63.2701         35.6891         -63.2702         35.7011      -0.00693807         150.829
0.505                  -0.191568        -124.619         -63.1482         32.9727         -63.1484         32.9872       -0.0069886         150.764
0.506                  -0.199927        -125.042         -63.0202         30.2597         -63.0206         30.2766      -0.00704025         150.698
0.507                  -0.208149        -125.468         -62.8865         27.5516         -62.8869         27.5706      -0.00709302         150.632
0.508                  -0.216238        -125.896         -62.7471         24.8498         -62.7476         24.8707      -0.00714691         150.566
0.509                    -0.2242        -126.327         -62.6023         22.1553         -62.6029         22.1779      -0.00720196           150.5
0.51                   -0.232043         -126.76         -62.4523         19.4691         -62.4531         19.4933      -0.00725815         150.434
0.511                  -0.239775        -127.195         -62.2974         16.7922         -62.2983         16.8176       -0.0073155         150.368
0.512                  -0.247409        -127.634         -62.1379         14.1251         -62.1389         14.1517      -0.00737403         150.302
0.513                  -0.254957        -128.075         -61.9739         11.4686         -61.9751         11.4962      -0.00743374         150.235
0.514                  -0.262435         -128.52         -61.8058         8.82293         -61.8071         8.85132      -0.00749464         150.169
0.515                   -0.26986        -128.968         -61.6338         6.18855         -61.6351         6.21757      -0.00755674         150.102
0.516                  -0.277252         -129.42         -61.4581         3.56559         -61.4596         3.59508      -0.00762005         150.036
0.517                  -0.284631        -129.875          -61.279        0.954122         -61.2806        0.983945      -0.00768459         149.969
0.518                  -0.292021        -130.334         -61.0968        -1.64589         -61.0984        -1.61587      -0.00775036         149.902
0.519                  -0.299446        -130.796         -60.9117        -4.23458         -60.9134         -4.2045      -0.00781737         149.836
0.52                   -0.306931        -131.263         -60.7238        -6.81218         -60.7256        -6.78216      -0.00788564         149.769
0.521                  -0.314503        -131.733         -60.5335        -9.37901         -60.5354        -9.34916      -0.00795517         149.702
0.522                  -0.322192        -132.208          -60.341        -11.9355         -60.3429        -11.9059      -0.00802598         149.635
0.523                  -0.330025        -132.687         -60.1464         -14.482         -60.1484        -14.4528      -0.00809808         149.567
0.524                  -0.338032        -133.169           -59.95        -17.0191          -59.952        -16.9903      -0.00817148           149.5
0.525                  -0.346242        -133.656          -59.752        -19.5474          -59.754        -19.5191      -0.00824619         149.433
0.526                  -0.354686        -134.147         -59.5526        -22.0674         -59.5545        -22.0397      -0.00832221         149.365
0.527                  -0.363394        -134.643         -59.3518        -24.5798         -59.3538        -24.5527      -0.00839958         149.298
0.528                  -0.372394        -135.142           -59.15        -27.0853         -59.1519        -27.0589      -0.00847828          149.23
0.529                  -0.381716        -135.646         -58.9472        -29.5845         -58.9491        -29.5589      -0.00855835         149.162
0.53                   -0.391387        -136.154         -58.7436        -32.0782         -58.7455        -32.0535      -0.00863978         149.094
0.531                  -0.401435        -136.665         -58.5394        -34.5672         -58.5413        -34.5432      -0.00872259         149.026
0.532                  -0.411884        -137.181         -58.3347         -37.052         -58.3366        -37.0289       -0.0088068         148.958
0.533                  -0.422759          -137.7         -58.1296        -39.5335         -58.1314        -39.5113      -0.00889241          148.89
0.534                  -0.434083        -138.224         -57.9243        -42.0124         -57.9261        -41.9912      -0.00897944         148.822
0.535                  -0.445877        -138.751         -57.7189        -44.4895         -57.7206        -44.4691       -0.0090679         148.754
0.536                  -0.458159        -139.281         -57.5135        -46.9653         -57.5151        -46.9459      -0.00915781         148.685
0.537                  -0.470947        -139.815         -57.3081        -49.4407         -57.3097        -49.4223      -0.00924917         148.617
0.538                  -0.484257        -140.352          -57.103        -51.9164         -57.1045        -51.8989        -0.009342         148.548
0.539                  -0.498102        -140.892         -56.8983        -54.3929         -56.8997        -54.3764      -0.00943631         148.479
0.54                   -0.512494        -141.435         -56.6939         -56.871         -56.6952        -56.8555      -0.00953212          148.41
0.541                  -0.527442        -141.981         -56.4901        -59.3513         -56.4913        -59.3368      -0.00962944         148.341
0.542                  -0.542955         -142.53         -56.2869        -61.8344          -56.288        -61.8208      -0.00972828         148.272
0.543                  -0.559039        -143.081         -56.0843        -64.3208         -56.0854        -64.3082      -0.00982865         148.203
0.544                  -0.575698        -143.635         -55.8826        -66.8111         -55.8835        -66.7995      -0.00993058         148.134
0.545                  -0.592936        -144.192         -55.6817        -69.3059         -55.6826        -69.2952       -0.0100341         148.064
0.546                  -0.610754         -144.75         -55.4818        -71.8056         -55.4825        -71.7958       -0.0101391         147.995
0.547                  -0.629151        -145.311         -55.2828        -74.3106         -55.2835        -74.3018       -0.0102458         147.925
0.548                  -0.648127        -145.873          -55.085        -76.8215         -55.0856        -76.8136       -0.0103541         147.855
0.549                  -0.667679        -146.438         -54.8884        -79.3385         -54.8889        -79.3315        -0.010464         147.786
0.55                   -0.687805        -147.004          -54.693        -81.8621         -54.6934         -81.856       -0.0105755         147.716
0.551                  -0.708499        -147.573         -54.4989        -84.3925         -54.4992        -84.3873       -0.0106887         147.645
0.552                  -0.729756        -148.142         -54.3062        -86.9301         -54.3064        -86.9257       -0.0108035         147.575
0.553                  -0.751571        -148.714         -54.1149         -89.475         -54.1151        -89.4714         -0.01092         147.505
0.554                  -0.773937        -149.286         -53.9252        -92.0275         -53.9252        -92.0247       -0.0110383         147.434
0.555                  -0.796848         -149.86          -53.737        -94.5878          -53.737        -94.5857       -0.0111582         147.364
0.556                  -0.820296        -150.436         -53.5505        -97.1559         -53.5504        -97.1546       -0.0112799         147.293
0.557                  -0.844274        -151.013         -53.3656        -99.7319         -53.3654        -99.7314       -0.0114033         147.222
0.558                  -0.868774        -151.591         -53.1825        -102.316         -53.1822        -102.316       -0.0115284         147.151
0.559                  -0.893788         -152.17         -53.0012        -104.908         -53.0009        -104.909       -0.0116554          147.08
0.56                   -0.919309        -152.751         -52.8217        -107.508         -52.8213        -107.509       -0.0117841         147.009
0.561                  -0.945328        -153.333          -52.644        -110.116         -52.6436        -110.118       -0.0119147         146.938
0.562                  -0.971838        -153.916         -52.4684        -112.732         -52.4679        -112.734       -0.0120471         146.866
0.563                  -0.998831          -154.5         -52.2946        -115.355         -52.2941        -115.358       -0.0121813         146.795
0.564                    -1.0263        -155.085         -52.1229        -117.986         -52.1223         -117.99       -0.0123174         146.723
0.565                   -1.05424        -155.672         -51.9532        -120.624         -51.9526        -120.628       -0.0124553         146.651
0.566                   -1.08264        -156.259         -51.7856        -123.269         -51.7849        -123.274       -0.0125952         146.579
0.567                    -1.1115        -156.848           -51.62        -125.921         -51.6193        -125.926       -0.0127369         146.507
0.568                    -1.1408        -157.438         -51.4565         -128.58         -51.4558        -128.585       -0.0128806         146.435
0.569                   -1.17055         -158.03         -51.2952        -131.244         -51.2945         -131.25       -0.0130263         146.363
0.57                    -1.20074        -158.622         -51.1359        -133.915         -51.1352        -133.921       -0.0131739          146.29
0.571                   -1.23137        -159.216         -50.9788        -136.591         -50.9781        -136.597       -0.0133235         146.217
0.572                   -1.26242        -159.811         -50.8238        -139.272         -50.8231        -139.278       -0.0134751         146.145
0.573                    -1.2939        -160.408          -50.671        -141.957         -50.6702        -141.964       -0.0136288         146.072
0.574                    -1.3258        -161.005         -50.5202        -144.647         -50.5194        -144.654       -0.0137844         145.999
0.575                   -1.35812        -161.605         -50.3715        -147.341         -50.3707        -147.348       -0.0139422         145.925
0.576                   -1.39086        -162.206         -50.2249        -150.038         -50.2242        -150.046        -0.014102         145.852
0.577                   -1.42402        -162.808         -50.0804        -152.739         -50.0796        -152.746       -0.0142639         145.778
0.578                   -1.45759        -163.412         -49.9378        -155.441         -49.9371        -155.449        -0.014428         145.705
0.579                   -1.49157        -164.017         -49.7973        -158.146         -49.7965        -158.154       -0.0145941         145.631
0.58                    -1.52596        -164.625         -49.6587        -160.853          -49.658         -160.86       -0.0147625         145.557
0.581                   -1.56077        -165.234          -49.522        -163.561         -49.5213        -163.568        -0.014933         145.483
0.582                     -1.596        -165.845         -49.3872        -166.269         -49.3864        -166.277       -0.0151058         145.409
0.583                   -1.63164        -166.458         -49.2541        -168.978         -49.2534        -168.986       -0.0152807         145.334
0.584                    -1.6677        -167.073         -49.1228        -171.687         -49.1221        -171.695       -0.0154579         145.259
0.585                   -1.70418        -167.689         -48.9932        -174.396         -48.9926        -174.403       -0.0156374         145.185
0.586                   -1.74109        -168.308         -48.8652        -177.104         -48.8646        -177.111       -0.0158192          145.11
0.587                   -1.77843         -168.93         -48.7388        -179.811         -48.7382        -179.818       -0.0160033         145.035
0.588                    -1.8162        -169.553         -48.6139         177.484         -48.6133         177.477       -0.0161897         144.959
0.589                   -1.85442        -170.179         -48.4904          174.78         -48.4899         174.773       -0.0163785         144.884
0.59                    -1.89308        -170.807         -48.3683         172.078         -48.3678         172.072       -0.0165697         144.808
0.591                   -1.93219        -171.438         -48.2475         169.379         -48.2469         169.372       -0.0167632         144.733
0.592                   -1.97177        -172.071         -48.1278         166.682         -48.1273         166.676       -0.0169592         144.657
0.593                   -2.01181        -172.707         -48.0093         163.987         -48.0089         163.982       -0.0171577          144.58
0.594                   -2.05234        -173.346         -47.8919         161.296         -47.8915         161.291       -0.0173586         144.504
0.595                   -2.09336        -173.988         -47.7755         158.608          -47.775         158.603       -0.0175621         144.428
0.596                   -2.13487        -174.632         -47.6599         155.923         -47.6595         155.918       -0.0177681         144.351
0.597                    -2.1769         -175.28         -47.5452         153.241         -47.5449         153.236       -0.0179766         144.274
0.598                   -2.21946        -175.931         -47.4313         150.563          -47.431         150.558       -0.0181877         144.197
0.599                   -2.26256        -176.585         -47.3181         147.888         -47.3177         147.884       -0.0184015          144.12
0.6                     -2.30621        -177.242         -47.2055         145.216         -47.2051         145.213       -0.0186178         144.042
0.601                   -2.35044        -177.903         -47.0934         142.548         -47.0931         142.545       -0.0188369         143.965
0.602                   -2.39525        -178.567         -46.9818         139.884         -46.9815         139.881       -0.0190586         143.887
0.603                   -2.44067        -179.235         -46.8707         137.223         -46.8704          137.22       -0.0192831         143.809
0.604                   -2.48672        -179.907         -46.7599         134.566         -46.7596         134.563       -0.0195103         143.731
0.605                   -2.53342         179.418         -46.6494         131.911         -46.6491         131.909       -0.0197403         143.652
0.606                   -2.58079         178.738         -46.5391          129.26         -46.5389         129.258       -0.0199732         143.574
0.607                   -2.62885         178.055          -46.429         126.612         -46.4288          126.61       -0.0202089         143.495
0.608                   -2.67762         177.368         -46.3191         123.968         -46.3189         123.966       -0.0204475         143.416
0.609                   -2.72715         176.676         -46.2092         121.325         -46.2091         121.324        -0.020689         143.336
0.61                    -2.77745          175.98         -46.0994         118.686         -46.0993         118.685       -0.0209336         143.257
0.611                   -2.82855          175.28         -45.9896         116.049         -45.9895         116.048       -0.0211811         143.177
0.612                   -2.88049         174.575         -45.8798         113.414         -45.8796         113.414       -0.0214317         143.097
0.613                   -2.93329         173.866         -45.7699         110.782         -45.7697         110.781       -0.0216855         143.017
0.614                     -2.987         173.152         -45.6598         108.151         -45.6597         108.151       -0.0219424         142.937
0.615                   -3.04165         172.433         -45.5497         105.522         -45.5496         105.522       -0.0222026         142.856
0.616                   -3.09728          171.71         -45.4394         102.894         -45.4393         102.894       -0.0224661         142.775
0.617                   -3.15394         170.982         -45.3289         100.268         -45.3288         100.268        -0.022733         142.694
0.618                   -3.21165         170.249         -45.2183         97.6422         -45.2182         97.6424       -0.0230034         142.613
0.619                   -3.27048         169.511         -45.1074         95.0173         -45.1073         95.0176       -0.0232773         142.531
0.62                    -3.33047         168.768         -44.9964         92.3929         -44.9963         92.3933       -0.0235548         142.449
0.621                   -3.39167         168.019         -44.8851         89.7687          -44.885         89.7692       -0.0238362         142.367
0.622                   -3.45413         167.266         -44.7736         87.1444         -44.7736          87.145       -0.0241214         142.285
0.623                   -3.51791         166.508          -44.662         84.5199         -44.6619         84.5206       -0.0244106         142.202
0.624                   -3.58306         165.745         -44.5501         81.8948         -44.5501         81.8956       -0.0247041         142.119
0.625                   -3.64965         164.977          -44.438          79.269          -44.438         79.2698       -0.0250019         142.036
0.626                   -3.71774         164.203         -44.3258         76.6422         -44.3258         76.6431       -0.0253043         141.953
0.627                   -3.78739         163.425         -44.2135         74.0142         -44.2134         74.0152       -0.0256115         141.869
0.628                   -3.85868         162.642         -44.1009         71.3848         -44.1009         71.3858       -0.0259237         141.785
0.629                   -3.93167         161.854         -43.9883         68.7539         -43.9883         68.7549       -0.0262413         141.701
0.63                    -4.00644         161.062         -43.8756         66.1211         -43.8756         66.1222       -0.0265644         141.616
0.631                   -4.08305         160.265         -43.7629         63.4865         -43.7628         63.4875       -0.0268935         141.532
0.632                    -4.1616         159.463         -43.6501         60.8497         -43.6501         60.8508       -0.0272289         141.446
0.633                   -4.24216         158.658         -43.5374         58.2107         -43.5373         58.2118       -0.0275709         141.361
0.634                    -4.3248         157.849         -43.4246         55.5694         -43.4246         55.5705       -0.0279201         141.275
0.635                   -4.40962         157.036          -43.312         52.9256          -43.312         52.9267       -0.0282768         141.189
0.636                    -4.4967          156.22         -43.1995         50.2793         -43.1995         50.2803       -0.0286414         141.103
0.637                   -4.58612         155.402         -43.0872         47.6304         -43.0872         47.6314       -0.0290144         141.016
0.638                   -4.67796         154.581         -42.9751         44.9789         -42.9751         44.9798       -0.0293961         140.929
0.639                   -4.77232         153.758         -42.8633         42.3247         -42.8632         42.3256        -0.029787         140.842
0.64                    -4.86928         152.933         -42.7517         39.6679         -42.7517         39.6687       -0.0301874         140.754
0.641                   -4.96892         152.108         -42.6405         37.0084         -42.6405         37.0093       -0.0305975         140.666
0.642                   -5.07132         151.283         -42.5297         34.3464         -42.5296         34.3472       -0.0310174         140.578
0.643                   -5.17656         150.458         -42.4193         31.6819         -42.4193         31.6827       -0.0314472          140.49
0.644                   -5.28472         149.635         -42.3094         29.0151         -42.3093         29.0157       -0.0318869         140.401
0.645                   -5.39586         148.813            -42.2         26.3459         -42.1999         26.3465       -0.0323362         140.312
0.646                   -5.51007         147.995         -42.0911         23.6746         -42.0911         23.6752       -0.0327949         140.222
0.647                   -5.62738         147.181         -41.9829         21.0014         -41.9829         21.0019       -0.0332625         140.132
0.648                   -5.74786         146.371         -41.8753         18.3263         -41.8752         18.3268       -0.0337385         140.042
0.649                   -5.87154         145.567         -41.7683         15.6497         -41.7683         15.6501       -0.0342225         139.952
0.65                    -5.99847         144.771         -41.6621         12.9718         -41.6621         12.9721       -0.0347138         139.861
0.651                   -6.12866         143.983         -41.5566         10.2927         -41.5565         10.2929       -0.0352118          139.77
0.652                   -6.26212         143.204         -41.4518         7.61274         -41.4518         7.61294       -0.0357161         139.678
0.653                   -6.39885         142.436         -41.3478         4.93221         -41.3478         4.93235       -0.0362262         139.586
0.654                   -6.53883         141.679         -41.2446         2.25137         -41.2446         2.25146       -0.0367416         139.494
0.655                   -6.68202         140.937         -41.1422        -0.42948         -41.1422       -0.429439       -0.0372622         139.402
0.656                   -6.82838         140.208         -41.0407        -3.11004         -41.0406        -3.11005       -0.0377878         139.309
0.657                   -6.97784         139.496         -40.9399        -5.79001         -40.9399        -5.79006       -0.0383182         139.215
0.658                    -7.1303         138.801           -40.84        -8.46906           -40.84        -8.46915       -0.0388535         139.121
0.659                   -7.28568         138.124         -40.7409        -11.1469         -40.7409         -11.147       -0.0393939         139.027
0.66                    -7.44384         137.468         -40.6427        -13.8232         -40.6427        -13.8234       -0.0399395         138.933
0.661                   -7.60465         136.832         -40.5453        -16.4977         -40.5452        -16.4979       -0.0404906         138.838
0.662                   -7.76794         136.219         -40.4486          -19.17         -40.4486        -19.1702       -0.0410475         138.742
0.663                   -7.93355         135.628         -40.3528        -21.8399         -40.3528        -21.8401       -0.0416106         138.647
0.664                   -8.10126         135.062         -40.2577         -24.507         -40.2577        -24.5072       -0.0421803          138.55
0.665                   -8.27088         134.522         -40.1633        -27.1712         -40.1633        -27.1714       -0.0427571         138.453
0.666                   -8.44219         134.007         -40.0697         -29.832         -40.0697        -29.8323       -0.0433413         138.356
0.667                   -8.61494         133.519         -39.9767        -32.4894         -39.9767        -32.4897       -0.0439335         138.258
0.668                    -8.7889         133.057         -39.8844        -35.1431         -39.8844        -35.1433       -0.0445342          138.16
0.669                   -8.96382         132.623         -39.7927        -37.7928         -39.7927         -37.793       -0.0451437         138.061
0.67                    -9.13943         132.217         -39.7015        -40.4384         -39.7015        -40.4386       -0.0457627         137.962
0.671                   -9.31549         131.838         -39.6109        -43.0797         -39.6109        -43.0799       -0.0463916         137.863
0.672                   -9.49173         131.487         -39.5207        -45.7166         -39.5207        -45.7167       -0.0470309         137.762
0.673                   -9.66791         131.163          -39.431        -48.3489          -39.431         -48.349       -0.0476811         137.661
0.674                   -9.84378         130.865         -39.3416        -50.9765         -39.3416        -50.9767       -0.0483428          137.56
0.675                   -10.0191         130.593         -39.2525        -53.5995         -39.2526        -53.5996       -0.0490164         137.458
0.676                   -10.1937         130.347         -39.1638        -56.2177         -39.1638        -56.2177       -0.0497025         137.356
0.677                   -10.3673         130.124         -39.0752        -58.8311         -39.0752        -58.8311       -0.0504017         137.253
0.678                   -10.5398         129.925         -38.9868        -61.4398         -38.9868        -61.4397       -0.0511145         137.149
0.679                    -10.711         129.748         -38.8986        -64.0437         -38.8986        -64.0436       -0.0518415         137.045
0.68                    -10.8808         129.592         -38.8104        -66.6429         -38.8104        -66.6427       -0.0525831          136.94
0.681                    -11.049         129.455         -38.7222        -69.2375         -38.7222        -69.2373       -0.0533402         136.835
0.682                   -11.2156         129.337          -38.634        -71.8275          -38.634        -71.8273       -0.0541132         136.729
0.683                   -11.3805         129.235         -38.5457        -74.4132         -38.5457         -74.413       -0.0549028         136.622
0.684                   -11.5437         129.149         -38.4573        -76.9946         -38.4573        -76.9943       -0.0557096         136.515
0.685                   -11.7051         129.077         -38.3687         -79.572         -38.3687        -79.5716       -0.0565344         136.407
0.686                   -11.8649         129.017         -38.2799        -82.1454         -38.2799         -82.145       -0.0573777         136.298
0.687                   -12.0229          128.97         -38.1909        -84.7151         -38.1908        -84.7147       -0.0582404         136.189
0.688                   -12.1794         128.933         -38.1015        -87.2813         -38.1015        -87.2808       -0.0591232         136.079
0.689                   -12.3344         128.905         -38.0118        -89.8442         -38.0118        -89.8437       -0.0600269         135.969
0.69                     -12.488         128.886         -37.9218        -92.4041         -37.9218        -92.4036       -0.0609522         135.857
0.691                   -12.6403         128.874         -37.8314        -94.9612         -37.8314        -94.9606          -0.0619         135.745
0.692                   -12.7914          128.87         -37.7405        -97.5158         -37.7405        -97.5152       -0.0628711         135.632
0.693                   -12.9416         128.872         -37.6493        -100.068         -37.6492        -100.067       -0.0638664         135.519
0.694                   -13.0909          128.88         -37.5575        -102.618         -37.5575        -102.618       -0.0648868         135.405
0.695                   -13.2396         128.895         -37.4653        -105.167         -37.4652        -105.166       -0.0659333          135.29
0.696                   -13.3877         128.915         -37.3725        -107.714         -37.3725        -107.714       -0.0670068         135.174
0.697                   -13.5356         128.942         -37.2793         -110.26         -37.2792         -110.26       -0.0681084         135.057