! TOUCHSTONE file generated by CST MICROWAVE STUDIO
! Date and time: Fri Oct  2 18:37:01 2020
! Project name: Scenario_1_Free_Space_out_of_line.cst
! Parameters = {Lambda=346.42; Step_1=17.321; dy1=-120.567; dx1=173; L_HA=400; MT=2.54; Rad_Dielectric=30; Rad_Lower=7.3; Rad_Upper=30; a_HA=580; a_WG=246; b_HA=500; b_WG=121; c_HA=0; c_WG=187; d_feed=85; h_feed=15; h_lower=18; h_upper=40}
! Header version: 2018
! Port assignment regex: !\s*Touchstone port\s*([0-9]+)\s*=\s*(CST MWS port|CST DS port)\s*([0-9]+|Zmin|Zmax)\s*\(\"(.*)\"\)(\s*mode\s*([0-9]+))?.*
! Touchstone port assignment:
! Touchstone port 1 = CST MWS port 1 ("")
! Touchstone port 2 = CST MWS port 2 ("")
# GHz S DB R 50
0.5                    -0.157731        -122.675         -56.9334          165.62         -56.9334          165.62      -0.00669189          151.08
0.501                  -0.163841        -123.108         -56.7718         164.477         -56.7736         164.481      -0.00673016         151.015
0.502                  -0.170058        -123.543         -56.6081          163.33         -56.6118         163.339      -0.00676875         150.949
0.503                  -0.176385        -123.979         -56.4425         162.178         -56.4479         162.192      -0.00680769         150.884
0.504                  -0.182824        -124.418         -56.2747          161.02         -56.2818         161.041      -0.00684701         150.818
0.505                  -0.189379        -124.859         -56.1049         159.855         -56.1135         159.883      -0.00688672         150.753
0.506                  -0.196051        -125.302         -55.9331         158.684         -55.9432          158.72      -0.00692685         150.687
0.507                  -0.202843        -125.747         -55.7593         157.505         -55.7707         157.549      -0.00696744         150.621
0.508                  -0.209759        -126.194         -55.5835         156.318         -55.5961         156.371       -0.0070085         150.555
0.509                  -0.216801        -126.643         -55.4057         155.122         -55.4194         155.184      -0.00705006         150.489
0.51                   -0.223972        -127.095          -55.226         153.915         -55.2406         153.987      -0.00709215         150.423
0.511                  -0.231275        -127.548         -55.0445         152.698         -55.0599         152.781       -0.0071348         150.357
0.512                  -0.238714        -128.004         -54.8613          151.47         -54.8772         151.563      -0.00717805         150.291
0.513                  -0.246291        -128.462         -54.6763         150.229         -54.6927         150.333      -0.00722191         150.224
0.514                  -0.254011        -128.922         -54.4898         148.975         -54.5064          149.09      -0.00726642         150.158
0.515                  -0.261876        -129.384         -54.3018         147.707         -54.3184         147.833      -0.00731161         150.091
0.516                  -0.269891        -129.849         -54.1124         146.424         -54.1289         146.562      -0.00735752         150.025
0.517                   -0.27806        -130.316         -53.9219         145.126         -53.9379         145.275      -0.00740417         149.958
0.518                  -0.286385        -130.785         -53.7302         143.812         -53.7458         143.971      -0.00745161         149.891
0.519                  -0.294872        -131.257         -53.5378         142.481         -53.5525          142.65      -0.00749986         149.824
0.52                   -0.303524        -131.731         -53.3446         141.133         -53.3584         141.311      -0.00754896         149.757
0.521                  -0.312345        -132.207         -53.1509         139.767         -53.1635         139.953      -0.00759895          149.69
0.522                  -0.321341        -132.686          -52.957         138.383         -52.9683         138.577      -0.00764987         149.623
0.523                  -0.330515        -133.168         -52.7629          136.98         -52.7728         137.181      -0.00770175         149.556
0.524                  -0.339873        -133.652          -52.569          135.56         -52.5773         135.766      -0.00775464         149.488
0.525                   -0.34942        -134.139         -52.3755         134.122         -52.3821         134.331      -0.00780856         149.421
0.526                   -0.35916        -134.628         -52.1827         132.665         -52.1874         132.878      -0.00786357         149.353
0.527                  -0.369098         -135.12         -51.9906         131.191         -51.9935         131.405      -0.00791971         149.285
0.528                   -0.37924        -135.614         -51.7996         129.701         -51.8006         129.914      -0.00797701         149.218
0.529                  -0.389593        -136.111         -51.6098         128.194          -51.609         128.405      -0.00803553          149.15
0.53                    -0.40016        -136.611         -51.4216         126.671         -51.4189         126.879       -0.0080953         149.082
0.531                  -0.410949        -137.114         -51.2349         125.135         -51.2305         125.338      -0.00815637         149.014
0.532                  -0.421965        -137.619         -51.0501         123.585          -51.044         123.782      -0.00821879         148.945
0.533                  -0.433215        -138.127         -50.8672         122.024         -50.8595         122.213       -0.0082826         148.877
0.534                  -0.444706        -138.638         -50.6865         120.451         -50.6773         120.633      -0.00834786         148.809
0.535                  -0.456444        -139.152         -50.5078          118.87         -50.4974         119.042       -0.0084146          148.74
0.536                  -0.468436        -139.669         -50.3315         117.281         -50.3199         117.443      -0.00848289         148.672
0.537                  -0.480689        -140.188         -50.1574         115.686         -50.1449         115.837      -0.00855276         148.603
0.538                  -0.493211        -140.711         -49.9856         114.085         -49.9723         114.226      -0.00862428         148.534
0.539                  -0.506009        -141.237         -49.8161         112.482         -49.8023         112.611      -0.00869749         148.465
0.54                   -0.519092        -141.765         -49.6489         110.876         -49.6346         110.994      -0.00877245         148.396
0.541                  -0.532467        -142.297         -49.4839         109.269         -49.4694         109.376      -0.00884921         148.327
0.542                  -0.546144        -142.832          -49.321         107.663         -49.3065         107.759      -0.00892783         148.257
0.543                   -0.56013         -143.37         -49.1602         106.058         -49.1458         106.144      -0.00900835         148.188
0.544                  -0.574435        -143.911         -49.0014         104.456         -48.9872         104.531      -0.00909085         148.119
0.545                  -0.589068        -144.455         -48.8444         102.857         -48.8305         102.922      -0.00917536         148.049
0.546                  -0.604038        -145.002         -48.6891         101.262         -48.6757         101.319      -0.00926196         147.979
0.547                  -0.619356        -145.553         -48.5354         99.6722         -48.5225         99.7202      -0.00935069         147.909
0.548                  -0.635031        -146.107         -48.3831         98.0874         -48.3709         98.1277      -0.00944162         147.839
0.549                  -0.651075        -146.664         -48.2322         96.5082         -48.2206         96.5416      -0.00953481         147.769
0.55                   -0.667497        -147.225         -48.0825         94.9351         -48.0716         94.9622      -0.00963031         147.699
0.551                  -0.684309        -147.789         -47.9338          93.368         -47.9237         93.3896      -0.00972818         147.629
0.552                  -0.701523        -148.356         -47.7861         91.8072         -47.7767          91.824      -0.00982849         147.558
0.553                   -0.71915        -148.927         -47.6391         90.2527         -47.6305         90.2652       -0.0099313         147.487
0.554                  -0.737202        -149.501         -47.4928         88.7043          -47.485         88.7133       -0.0100367         147.417
0.555                  -0.755693        -150.078         -47.3471          87.162         -47.3401          87.168       -0.0101446         147.346
0.556                  -0.774634        -150.659         -47.2019         85.6255         -47.1956         85.6291       -0.0102553         147.275
0.557                  -0.794039        -151.244         -47.0571         84.0946         -47.0515         84.0962       -0.0103687         147.204
0.558                  -0.813923        -151.832         -46.9125         82.5691         -46.9076         82.5691       -0.0104848         147.133
0.559                  -0.834298        -152.423         -46.7682         81.0485         -46.7639         81.0474       -0.0106039         147.061
0.56                   -0.855179        -153.018          -46.624         79.5325         -46.6203         79.5307       -0.0107258          146.99
0.561                  -0.876581        -153.617         -46.4799         78.0208         -46.4767         78.0185       -0.0108507         146.918
0.562                   -0.89852        -154.219         -46.3358         76.5129         -46.3331         76.5104       -0.0109787         146.846
0.563                   -0.92101        -154.825         -46.1917         75.0085         -46.1895          75.006       -0.0111097         146.774
0.564                  -0.944068        -155.435         -46.0475         73.5072         -46.0457         73.5048       -0.0112439         146.702
0.565                  -0.967711        -156.048         -45.9032         72.0084         -45.9018         72.0064       -0.0113813          146.63
0.566                  -0.991955        -156.664         -45.7588         70.5119         -45.7578         70.5103       -0.0115219         146.558
0.567                   -1.01682        -157.284         -45.6142         69.0172         -45.6135         69.0161       -0.0116658         146.486
0.568                   -1.04232        -157.908         -45.4695         67.5238         -45.4691         67.5234       -0.0118131         146.413
0.569                   -1.06847        -158.535         -45.3246         66.0315         -45.3244         66.0318       -0.0119638          146.34
0.57                     -1.0953        -159.166         -45.1795         64.5398         -45.1795         64.5408       -0.0121179         146.267
0.571                   -1.12281        -159.801         -45.0342         63.0484         -45.0344         63.0501       -0.0122756         146.194
0.572                   -1.15104        -160.439         -44.8887         61.5569         -44.8891         61.5593       -0.0124368         146.121
0.573                      -1.18        -161.081          -44.743         60.0649         -44.7436         60.0681       -0.0126015         146.048
0.574                   -1.20971        -161.726         -44.5972         58.5722         -44.5978          58.576       -0.0127699         145.974
0.575                    -1.2402        -162.374         -44.4512         57.0784         -44.4519         57.0829        -0.012942         145.901
0.576                   -1.27147        -163.027         -44.3051         55.5832         -44.3058         55.5883       -0.0131177         145.827
0.577                   -1.30356        -163.682         -44.1588         54.0863         -44.1596          54.092       -0.0132972         145.753
0.578                   -1.33648        -164.341         -44.0124         52.5876         -44.0132         52.5937       -0.0134804         145.679
0.579                   -1.37026        -165.003         -43.8659         51.0866         -43.8668         51.0932       -0.0136674         145.605
0.58                    -1.40492        -165.669         -43.7193         49.5832         -43.7202         49.5903       -0.0138581         145.531
0.581                   -1.44048        -166.337         -43.5727         48.0772         -43.5736         48.0846       -0.0140527         145.456
0.582                   -1.47697        -167.009          -43.426         46.5684         -43.4269         46.5761       -0.0142511         145.382
0.583                    -1.5144        -167.684         -43.2794         45.0565         -43.2802         45.0644       -0.0144534         145.307
0.584                   -1.55281        -168.362         -43.1328         43.5414         -43.1336         43.5495       -0.0146595         145.232
0.585                    -1.5922        -169.043         -42.9862         42.0229         -42.9869         42.0312       -0.0148694         145.157
0.586                   -1.63262        -169.727         -42.8397          40.501         -42.8404         40.5094       -0.0150832         145.082
0.587                   -1.67407        -170.413         -42.6933         38.9754          -42.694         38.9838       -0.0153008         145.006
0.588                   -1.71659        -171.102          -42.547          37.446         -42.5477         37.4545       -0.0155222         144.931
0.589                   -1.76019        -171.794         -42.4009         35.9128         -42.4015         35.9213       -0.0157475         144.855
0.59                    -1.80491        -172.488          -42.255         34.3757         -42.2556          34.384       -0.0159765         144.779
0.591                   -1.85076        -173.184         -42.1094         32.8345         -42.1099         32.8427       -0.0162094         144.703
0.592                   -1.89776        -173.882          -41.964         31.2892         -41.9644         31.2973       -0.0164459         144.627
0.593                   -1.94595        -174.582         -41.8188         29.7398         -41.8192         29.7477       -0.0166862          144.55
0.594                   -1.99533        -175.284          -41.674         28.1862         -41.6744         28.1939       -0.0169302         144.474
0.595                   -2.04594        -175.988         -41.5296         26.6284         -41.5299         26.6359       -0.0171779         144.397
0.596                   -2.09779        -176.693         -41.3855         25.0663         -41.3858         25.0736       -0.0174291          144.32
0.597                    -2.1509        -177.399         -41.2418         23.5001          -41.242         23.5071        -0.017684         144.243
0.598                    -2.2053        -178.107         -41.0986         21.9296         -41.0987         21.9364       -0.0179423         144.166
0.599                     -2.261        -178.815         -40.9558         20.3549         -40.9559         20.3614       -0.0182042         144.088
0.6                     -2.31802        -179.524         -40.8135         18.7761         -40.8136         18.7823       -0.0184695         144.011
0.601                   -2.37639         179.767         -40.6717         17.1931         -40.6718          17.199       -0.0187381         143.933
0.602                    -2.4361         179.057         -40.5305         15.6061         -40.5305         15.6116       -0.0190101         143.855
0.603                   -2.49719         178.347         -40.3898          14.015         -40.3899         14.0203       -0.0192854         143.777
0.604                   -2.55965         177.638         -40.2498           12.42         -40.2498         12.4249       -0.0195638         143.698
0.605                   -2.62351          176.93         -40.1103         10.8211         -40.1103         10.8257       -0.0198454          143.62
0.606                   -2.68877         176.222         -39.9715          9.2184         -39.9715         9.22274       -0.0201302         143.541
0.607                   -2.75545         175.515         -39.8334         7.61203         -39.8334         7.61607       -0.0204179         143.462
0.608                   -2.82354          174.81          -39.696         6.00208         -39.6959         6.00583       -0.0207087         143.383
0.609                   -2.89306         174.107         -39.5592         4.38866         -39.5592         4.39212       -0.0210023         143.303
0.61                      -2.964         173.405         -39.4232         2.77189         -39.4232         2.77507       -0.0212989         143.224
0.611                   -3.03637         172.706          -39.288         1.15189         -39.2879          1.1548       -0.0215983         143.144
0.612                   -3.11016          172.01         -39.1535       -0.471207         -39.1534       -0.468557       -0.0219004         143.064
0.613                   -3.18536         171.316         -39.0198        -2.09726         -39.0197        -2.09485       -0.0222054         142.984
0.614                   -3.26198         170.626         -38.8869        -3.72611         -38.8868        -3.72395        -0.022513         142.904
0.615                      -3.34          169.94         -38.7548        -5.35763         -38.7547        -5.35569       -0.0228232         142.823
0.616                   -3.41941         169.257         -38.6235        -6.99165         -38.6234        -6.98992       -0.0231361         142.742
0.617                   -3.50018         168.579         -38.4931        -8.62802          -38.493        -8.62648       -0.0234516         142.661
0.618                   -3.58231         167.905         -38.3635        -10.2666         -38.3634        -10.2652       -0.0237697          142.58
0.619                   -3.66577         167.237         -38.2347        -11.9071         -38.2347        -11.9059       -0.0240904         142.498
0.62                    -3.75053         166.573         -38.1068        -13.5495         -38.1068        -13.5485       -0.0244136         142.416
0.621                   -3.83656         165.916         -37.9798        -15.1936         -37.9798        -15.1927       -0.0247394         142.334
0.622                   -3.92384         165.264         -37.8536        -16.8392         -37.8536        -16.8385       -0.0250678         142.252
0.623                   -4.01233         164.618         -37.7283        -18.4861         -37.7283        -18.4855       -0.0253988         142.169
0.624                   -4.10198         163.979         -37.6039        -20.1342         -37.6039        -20.1336       -0.0257325         142.087
0.625                   -4.19276         163.347         -37.4803        -21.7832         -37.4803        -21.7828       -0.0260687         142.004
0.626                   -4.28462         162.722         -37.3577         -23.433         -37.3577        -23.4327       -0.0264078          141.92
0.627                   -4.37751         162.105         -37.2358        -25.0835         -37.2358        -25.0832       -0.0267495         141.837
0.628                   -4.47138         161.495         -37.1149        -26.7344         -37.1149        -26.7342       -0.0270941         141.753
0.629                   -4.56617         160.892         -36.9947        -28.3856         -36.9948        -28.3854       -0.0274417         141.669
0.63                    -4.66183         160.298         -36.8755        -30.0368         -36.8755        -30.0367       -0.0277922         141.584
0.631                   -4.75829         159.713          -36.757         -31.688         -36.7571         -31.688       -0.0281458           141.5
0.632                   -4.85549         159.135         -36.6394         -33.339         -36.6395         -33.339       -0.0285027         141.415
0.633                   -4.95337         158.566         -36.5226        -34.9896         -36.5227        -34.9896       -0.0288629          141.33
0.634                   -5.05185         158.006         -36.4066        -36.6397         -36.4067        -36.6397       -0.0292266         141.244
0.635                   -5.15087         157.455         -36.2914        -38.2891         -36.2915         -38.289       -0.0295939         141.158
0.636                   -5.25034         156.912          -36.177        -39.9376         -36.1771        -39.9376        -0.029965         141.072
0.637                   -5.35021         156.378         -36.0633        -41.5851         -36.0634        -41.5851         -0.03034         140.985
0.638                   -5.45039         155.853         -35.9504        -43.2315         -35.9504        -43.2315       -0.0307192         140.899
0.639                    -5.5508         155.337         -35.8381        -44.8767         -35.8382        -44.8766       -0.0311027         140.812
0.64                    -5.65137          154.83         -35.7266        -46.5205         -35.7267        -46.5204       -0.0314908         140.724
0.641                   -5.75203         154.331         -35.6158        -48.1627         -35.6159        -48.1627       -0.0318837         140.636
0.642                    -5.8527          153.84         -35.5056        -49.8034         -35.5057        -49.8033       -0.0322815         140.548
0.643                    -5.9533         153.358          -35.396        -51.4424         -35.3961        -51.4423       -0.0326846          140.46
0.644                   -6.05376         152.883         -35.2871        -53.0796         -35.2872        -53.0794       -0.0330932         140.371
0.645                     -6.154         152.416         -35.1787        -54.7148         -35.1788        -54.7147       -0.0335077         140.282
0.646                   -6.25396         151.957         -35.0709        -56.3481          -35.071         -56.348       -0.0339281         140.192
0.647                   -6.35357         151.505         -34.9637        -57.9794         -34.9638        -57.9792        -0.034355         140.102
0.648                   -6.45277         151.059         -34.8569        -59.6085          -34.857        -59.6083       -0.0347886         140.012
0.649                   -6.55148          150.62         -34.7507        -61.2355         -34.7508        -61.2352       -0.0352291         139.921
0.65                    -6.64967         150.186         -34.6449        -62.8602          -34.645          -62.86        -0.035677          139.83
0.651                   -6.74727         149.757         -34.5396        -64.4827         -34.5396        -64.4824       -0.0361326         139.739
0.652                   -6.84424         149.334         -34.4346        -66.1029         -34.4347        -66.1026       -0.0365963         139.647
0.653                   -6.94053         148.914         -34.3301        -67.7208         -34.3302        -67.7204       -0.0370684         139.555
0.654                   -7.03611         148.499         -34.2259        -69.3363          -34.226         -69.336       -0.0375494         139.462
0.655                   -7.13095         148.086          -34.122        -70.9495         -34.1221        -70.9492       -0.0380395         139.369
0.656                   -7.22502         147.676         -34.0185        -72.5604         -34.0185          -72.56       -0.0385394         139.275
0.657                    -7.3183         147.267         -33.9152        -74.1689         -33.9152        -74.1685       -0.0390493         139.181
0.658                   -7.41078          146.86         -33.8122        -75.7751         -33.8122        -75.7747       -0.0395697         139.087
0.659                   -7.50247         146.453         -33.7094         -77.379         -33.7094        -77.3787       -0.0401011         138.992
0.66                    -7.59335         146.046         -33.6068        -78.9807         -33.6068        -78.9804       -0.0406439         138.897
0.661                   -7.68343         145.638         -33.5043        -80.5802         -33.5044        -80.5798       -0.0411987         138.801
0.662                   -7.77275         145.228          -33.402        -82.1775         -33.4021        -82.1771       -0.0417659         138.705
0.663                   -7.86131         144.817         -33.2999        -83.7727         -33.2999        -83.7724       -0.0423461         138.608
0.664                   -7.94915         144.402         -33.1978        -85.3659         -33.1978        -85.3655       -0.0429397         138.511
0.665                   -8.03631         143.984         -33.0958        -86.9571         -33.0958        -86.9567       -0.0435473         138.414
0.666                   -8.12283         143.561         -32.9938        -88.5464         -32.9939        -88.5461       -0.0441694         138.315
0.667                   -8.20877         143.134         -32.8919         -90.134         -32.8919        -90.1336       -0.0448067         138.217
0.668                   -8.29418         142.701           -32.79        -91.7198           -32.79        -91.7194       -0.0454597         138.118
0.669                   -8.37914         142.262         -32.6881         -93.304         -32.6881        -93.3037       -0.0461291         138.018
0.67                     -8.4637         141.816         -32.5861        -94.8867         -32.5861        -94.8864       -0.0468153         137.918
0.671                   -8.54796         141.362         -32.4841         -96.468         -32.4841        -96.4677       -0.0475191         137.817
0.672                     -8.632         140.901          -32.382        -98.0481          -32.382        -98.0478        -0.048241         137.716
0.673                    -8.7159         140.431         -32.2797         -99.627         -32.2798        -99.6267       -0.0489819         137.614
0.674                   -8.79977         139.953         -32.1774        -101.205         -32.1774        -101.205       -0.0497423         137.512
0.675                    -8.8837         139.464          -32.075        -102.782          -32.075        -102.782       -0.0505228         137.409
0.676                   -8.96781         138.966         -31.9724        -104.358         -31.9724        -104.358       -0.0513244         137.306
0.677                    -9.0522         138.458         -31.8696        -105.934         -31.8696        -105.934       -0.0521476         137.202
0.678                   -9.13701         137.939         -31.7667        -107.509         -31.7667        -107.509       -0.0529931         137.097
0.679                   -9.22234         137.408         -31.6636        -109.084         -31.6636        -109.084       -0.0538619         136.992
0.68                    -9.30832         136.867         -31.5603        -110.659         -31.5603        -110.659       -0.0547546         136.887
0.681                   -9.39509         136.313         -31.4568        -112.234         -31.4568        -112.234        -0.055672          136.78
0.682                   -9.48278         135.748         -31.3531        -113.809         -31.3531        -113.809       -0.0566149         136.673
0.683                   -9.57154          135.17         -31.2491        -115.385         -31.2491        -115.385       -0.0575842         136.566
0.684                    -9.6615          134.58         -31.1449        -116.961          -31.145        -116.961       -0.0585806         136.458
0.685                   -9.75282         133.977         -31.0405        -118.538         -31.0405        -118.537       -0.0596051         136.349
0.686                   -9.84565         133.362         -30.9359        -120.115         -30.9359        -120.115       -0.0606586         136.239
0.687                   -9.94015         132.734          -30.831        -121.694          -30.831        -121.694       -0.0617418         136.129
0.688                   -10.0365         132.093         -30.7259        -123.274         -30.7259        -123.274       -0.0628557         136.019
0.689                   -10.1348         131.439         -30.6205        -124.856         -30.6205        -124.855       -0.0640013         135.907
0.69                    -10.2353         130.772         -30.5149        -126.439         -30.5149        -126.439       -0.0651794         135.795
0.691                   -10.3381         130.093         -30.4091        -128.024         -30.4091        -128.023        -0.066391         135.682
0.692                   -10.4434         129.401          -30.303         -129.61          -30.303         -129.61        -0.067637         135.569
0.693                   -10.5515         128.696         -30.1967        -131.199         -30.1967        -131.199       -0.0689184         135.455
0.694                   -10.6624         127.979         -30.0902        -132.791         -30.0902        -132.791       -0.0702362          135.34
0.695                   -10.7764          127.25         -29.9835        -134.385         -29.9835        -134.385       -0.0715914         135.224
0.696                   -10.8938         126.508         -29.8765        -135.981         -29.8766        -135.981       -0.0729849         135.108
0.697                   -11.0146         125.756         -29.7694        -137.581         -29.7695         -137.58       -0.0744178         134.991