! TOUCHSTONE file generated by CST MICROWAVE STUDIO
! Date and time: Fri Oct  2 16:36:25 2020
! Project name: Scenario_1_Free_Space_out_of_line.cst
! Parameters = {Lambda=346.42; Step_1=17.321; dy1=-137.908; dx1=520; L_HA=400; MT=2.54; Rad_Dielectric=30; Rad_Lower=7.3; Rad_Upper=30; a_HA=580; a_WG=246; b_HA=500; b_WG=121; c_HA=0; c_WG=187; d_feed=85; h_feed=15; h_lower=18; h_upper=40}
! Header version: 2018
! Port assignment regex: !\s*Touchstone port\s*([0-9]+)\s*=\s*(CST MWS port|CST DS port)\s*([0-9]+|Zmin|Zmax)\s*\(\"(.*)\"\)(\s*mode\s*([0-9]+))?.*
! Touchstone port assignment:
! Touchstone port 1 = CST MWS port 1 ("")
! Touchstone port 2 = CST MWS port 2 ("")
# GHz S DB R 50
0.5                    -0.150291        -122.369         -61.4212        -20.6772         -61.4212        -20.6772      -0.00661633         151.121
0.501                  -0.155833        -122.819         -61.2601        -22.4124         -61.2601        -22.4124      -0.00665939         151.056
0.502                  -0.161565         -123.27         -61.0973        -24.1497         -61.0973        -24.1497      -0.00670372         150.991
0.503                   -0.16749        -123.723          -60.933        -25.8889          -60.933        -25.8889      -0.00674934         150.925
0.504                   -0.17361        -124.179         -60.7672        -27.6301         -60.7672        -27.6301      -0.00679624         150.859
0.505                  -0.179927        -124.635            -60.6        -29.3733         -60.5999        -29.3733      -0.00684443         150.794
0.506                  -0.186444        -125.094         -60.4313        -31.1185         -60.4313        -31.1185      -0.00689392         150.728
0.507                  -0.193163        -125.554         -60.2613        -32.8657         -60.2612        -32.8658      -0.00694472         150.662
0.508                  -0.200086        -126.016         -60.0899        -34.6151         -60.0899        -34.6151      -0.00699682         150.596
0.509                  -0.207217         -126.48         -59.9173        -36.3665         -59.9173        -36.3666      -0.00705023          150.53
0.51                   -0.214556        -126.946         -59.7435        -38.1202         -59.7435        -38.1202      -0.00710496         150.464
0.511                  -0.222107        -127.413         -59.5685        -39.8761         -59.5685        -39.8762      -0.00716102         150.398
0.512                  -0.229873        -127.883         -59.3924        -41.6344         -59.3924        -41.6345      -0.00721841         150.332
0.513                  -0.237856        -128.354         -59.2152        -43.3952         -59.2152        -43.3952      -0.00727713         150.266
0.514                  -0.246059        -128.827         -59.0371        -45.1584          -59.037        -45.1585       -0.0073372         150.199
0.515                  -0.254485        -129.302         -58.8579        -46.9243         -58.8579        -46.9243      -0.00739861         150.133
0.516                  -0.263136        -129.778         -58.6779        -48.6929         -58.6778         -48.693      -0.00746138         150.066
0.517                  -0.272015        -130.257         -58.4969        -50.4644         -58.4969        -50.4644      -0.00752552             150
0.518                  -0.281125        -130.737         -58.3152        -52.2388         -58.3152        -52.2388      -0.00759101         149.933
0.519                  -0.290469         -131.22         -58.1327        -54.0163         -58.1327        -54.0163      -0.00765789         149.866
0.52                    -0.30005        -131.704         -57.9495         -55.797         -57.9495         -55.797      -0.00772614           149.8
0.521                  -0.309872         -132.19         -57.7656         -57.581         -57.7656        -57.5811      -0.00779578         149.733
0.522                  -0.319937        -132.678         -57.5811        -59.3685         -57.5811        -59.3685      -0.00786681         149.666
0.523                  -0.330248        -133.169          -57.396        -61.1596          -57.396        -61.1596      -0.00793925         149.598
0.524                  -0.340809        -133.661         -57.2105        -62.9543         -57.2104        -62.9544      -0.00801309         149.531
0.525                  -0.351623        -134.155         -57.0244         -64.753         -57.0244         -64.753      -0.00808835         149.464
0.526                  -0.362694        -134.651          -56.838        -66.5556         -56.8379        -66.5556      -0.00816504         149.397
0.527                  -0.374025        -135.149         -56.6511        -68.3623         -56.6511        -68.3624      -0.00824315         149.329
0.528                  -0.385619        -135.649          -56.464        -70.1733          -56.464        -70.1733       -0.0083227         149.262
0.529                  -0.397481        -136.151         -56.2766        -71.9886         -56.2766        -71.9886      -0.00840369         149.194
0.53                   -0.409613        -136.655          -56.089        -73.8084         -56.0889        -73.8084      -0.00848614         149.126
0.531                   -0.42202        -137.161         -55.9012        -75.6328         -55.9011        -75.6329      -0.00857005         149.058
0.532                  -0.434705        -137.669         -55.7133         -77.462         -55.7132         -77.462      -0.00865542          148.99
0.533                  -0.447672         -138.18         -55.5253         -79.296         -55.5252         -79.296      -0.00874227         148.922
0.534                  -0.460926        -138.692         -55.3373        -81.1349         -55.3372         -81.135      -0.00883061         148.854
0.535                   -0.47447        -139.207         -55.1493        -82.9789         -55.1493         -82.979      -0.00892044         148.786
0.536                  -0.488309        -139.723         -54.9614        -84.8281         -54.9614        -84.8281      -0.00901178         148.718
0.537                  -0.502446        -140.242         -54.7737        -86.6825         -54.7736        -86.6825      -0.00910462         148.649
0.538                  -0.516887        -140.763         -54.5861        -88.5422          -54.586        -88.5422      -0.00919898         148.581
0.539                  -0.531635        -141.286         -54.3987        -90.4073         -54.3987        -90.4074      -0.00929487         148.512
0.54                   -0.546696        -141.811         -54.2116        -92.2779         -54.2116        -92.2779      -0.00939229         148.443
0.541                  -0.562073        -142.339         -54.0248         -94.154         -54.0248         -94.154      -0.00949127         148.375
0.542                  -0.577771        -142.869         -53.8384        -96.0357         -53.8384        -96.0357      -0.00959179         148.306
0.543                  -0.593796          -143.4         -53.6525        -97.9229         -53.6524         -97.923      -0.00969388         148.237
0.544                  -0.610151        -143.934         -53.4669        -99.8159         -53.4669        -99.8159      -0.00979755         148.168
0.545                  -0.626843        -144.471         -53.2819        -101.714         -53.2819        -101.715       -0.0099028         148.098
0.546                  -0.643877        -145.009         -53.0974        -103.619         -53.0974        -103.619       -0.0100096         148.029
0.547                  -0.661256         -145.55         -52.9136        -105.529         -52.9136        -105.529       -0.0101181         147.959
0.548                  -0.678988        -146.093         -52.7304        -107.444         -52.7303        -107.444       -0.0102281          147.89
0.549                  -0.697077        -146.639         -52.5478        -109.365         -52.5478        -109.366       -0.0103398          147.82
0.55                    -0.71553        -147.186          -52.366        -111.292          -52.366        -111.292       -0.0104531          147.75
0.551                   -0.73435        -147.736          -52.185        -113.225          -52.185        -113.225       -0.0105681         147.681
0.552                  -0.753546        -148.289         -52.0048        -115.163         -52.0048        -115.163       -0.0106847         147.611
0.553                  -0.773122        -148.843         -51.8254        -117.106         -51.8254        -117.106        -0.010803          147.54
0.554                  -0.793084          -149.4         -51.6469        -119.054         -51.6469        -119.054        -0.010923          147.47
0.555                  -0.813439         -149.96         -51.4693        -121.008         -51.4693        -121.008       -0.0110446           147.4
0.556                  -0.834194        -150.521         -51.2928        -122.967         -51.2928        -122.967        -0.011168         147.329
0.557                  -0.855353        -151.085         -51.1172        -124.931         -51.1172        -124.931       -0.0112931         147.259
0.558                  -0.876926        -151.652         -50.9426          -126.9         -50.9426          -126.9       -0.0114198         147.188
0.559                  -0.898917        -152.221         -50.7691        -128.874         -50.7691        -128.874       -0.0115484         147.117
0.56                   -0.921334        -152.792         -50.5967        -130.852         -50.5967        -130.852       -0.0116786         147.046
0.561                  -0.944184        -153.366         -50.4254        -132.835         -50.4254        -132.835       -0.0118107         146.975
0.562                  -0.967474        -153.942         -50.2553        -134.822         -50.2553        -134.822       -0.0119445         146.904
0.563                  -0.991212         -154.52         -50.0863        -136.813         -50.0863        -136.813       -0.0120801         146.833
0.564                   -1.01541        -155.101         -49.9185        -138.808         -49.9185        -138.808       -0.0122175         146.761
0.565                   -1.04006        -155.685         -49.7519        -140.807         -49.7519        -140.807       -0.0123567          146.69
0.566                   -1.06519         -156.27         -49.5866        -142.809         -49.5866        -142.809       -0.0124977         146.618
0.567                   -1.09079        -156.859         -49.4225        -144.815         -49.4225        -144.815       -0.0126406         146.546
0.568                   -1.11688        -157.449         -49.2597        -146.824         -49.2597        -146.824       -0.0127853         146.474
0.569                   -1.14347        -158.043         -49.0981        -148.835         -49.0981        -148.835        -0.012932         146.402
0.57                    -1.17056        -158.638         -48.9378         -150.85         -48.9378         -150.85       -0.0130804          146.33
0.571                   -1.19816        -159.237         -48.7788        -152.866         -48.7788        -152.866       -0.0132308         146.258
0.572                   -1.22628        -159.837         -48.6211        -154.885         -48.6211        -154.885       -0.0133831         146.185
0.573                   -1.25494         -160.44         -48.4647        -156.906         -48.4647        -156.906       -0.0135373         146.113
0.574                   -1.28413        -161.046         -48.3096        -158.929         -48.3096        -158.929       -0.0136935          146.04
0.575                   -1.31387        -161.654         -48.1558        -160.953         -48.1558        -160.953       -0.0138516         145.967
0.576                   -1.34416        -162.264         -48.0032        -162.979         -48.0032        -162.979       -0.0140117         145.894
0.577                   -1.37503        -162.877          -47.852        -165.005          -47.852        -165.005       -0.0141738         145.821
0.578                   -1.40647        -163.492          -47.702        -167.032          -47.702        -167.032       -0.0143379         145.747
0.579                   -1.43849         -164.11         -47.5532         -169.06         -47.5533         -169.06        -0.014504         145.674
0.58                    -1.47112         -164.73         -47.4058        -171.089         -47.4058        -171.089       -0.0146722           145.6
0.581                   -1.50435        -165.353         -47.2595        -173.117         -47.2595        -173.117       -0.0148425         145.526
0.582                    -1.5382        -165.978         -47.1145        -175.146         -47.1145        -175.146       -0.0150148         145.452
0.583                   -1.57267        -166.606         -46.9706        -177.174         -46.9706        -177.174       -0.0151892         145.378
0.584                   -1.60779        -167.235         -46.8279        -179.202         -46.8279        -179.202       -0.0153657         145.304
0.585                   -1.64355        -167.867         -46.6864         178.771         -46.6864         178.771       -0.0155444          145.23
0.586                   -1.67997        -168.502          -46.546         176.744          -46.546         176.744       -0.0157252         145.155
0.587                   -1.71706        -169.139         -46.4067         174.719         -46.4067         174.719       -0.0159082          145.08
0.588                   -1.75483        -169.778         -46.2684         172.694         -46.2685         172.694       -0.0160934         145.005
0.589                   -1.79329        -170.419         -46.1312         170.671         -46.1313         170.671       -0.0162808          144.93
0.59                    -1.83245        -171.062         -45.9951         168.649         -45.9951         168.649       -0.0164705         144.855
0.591                   -1.87233        -171.708         -45.8599         166.629         -45.8599         166.629       -0.0166624          144.78
0.592                   -1.91292        -172.356         -45.7256         164.611         -45.7256         164.611       -0.0168566         144.704
0.593                   -1.95425        -173.005         -45.5923         162.594         -45.5923         162.594       -0.0170531         144.628
0.594                   -1.99632        -173.657         -45.4598         160.579         -45.4598         160.579        -0.017252         144.553
0.595                   -2.03915        -174.311         -45.3282         158.566         -45.3282         158.566       -0.0174532         144.476
0.596                   -2.08273        -174.967         -45.1974         156.554         -45.1974         156.554       -0.0176568           144.4
0.597                   -2.12709        -175.624         -45.0674         154.545         -45.0674         154.545       -0.0178628         144.324
0.598                   -2.17222        -176.284         -44.9382         152.538         -44.9382         152.538       -0.0180713         144.247
0.599                   -2.21814        -176.945         -44.8096         150.533         -44.8096         150.533       -0.0182822          144.17
0.6                     -2.26486        -177.608         -44.6817         148.531         -44.6818         148.531       -0.0184957         144.093
0.601                   -2.31237        -178.272         -44.5545          146.53         -44.5545          146.53       -0.0187116         144.016
0.602                    -2.3607        -178.938         -44.4279         144.532         -44.4279         144.532       -0.0189301         143.939
0.603                   -2.40983        -179.606         -44.3018         142.536         -44.3019         142.536       -0.0191512         143.861
0.604                   -2.45978         179.726         -44.1763         140.541         -44.1763         140.542        -0.019375         143.783
0.605                   -2.51054         179.056         -44.0513         138.549         -44.0513          138.55       -0.0196014         143.706
0.606                   -2.56212         178.384         -43.9268          136.56         -43.9268          136.56       -0.0198305         143.627
0.607                   -2.61451         177.712         -43.8027         134.572         -43.8027         134.572       -0.0200624         143.549
0.608                   -2.66772         177.039          -43.679         132.586          -43.679         132.586        -0.020297          143.47
0.609                   -2.72174         176.364         -43.5557         130.602         -43.5557         130.602       -0.0205344         143.392
0.61                    -2.77656         175.689         -43.4328         128.619         -43.4328         128.619       -0.0207748         143.313
0.611                   -2.83217         175.013         -43.3101         126.639         -43.3102         126.639        -0.021018         143.234
0.612                   -2.88856         174.337         -43.1878          124.66         -43.1878          124.66       -0.0212642         143.154
0.613                   -2.94572         173.659         -43.0657         122.682         -43.0657         122.682       -0.0215135         143.074
0.614                   -3.00364         172.981         -42.9439         120.706         -42.9439         120.706       -0.0217658         142.995
0.615                   -3.06228         172.303         -42.8223         118.732         -42.8223         118.732       -0.0220212         142.915
0.616                   -3.12163         171.624         -42.7009         116.758         -42.7009         116.758       -0.0222798         142.834
0.617                   -3.18166         170.944         -42.5797         114.786         -42.5797         114.786       -0.0225417         142.754
0.618                   -3.24235         170.264         -42.4586         112.814         -42.4586         112.814       -0.0228069         142.673
0.619                   -3.30366         169.583         -42.3377         110.843         -42.3377         110.843       -0.0230755         142.592
0.62                    -3.36557         168.901         -42.2168         108.873         -42.2168         108.873       -0.0233476         142.511
0.621                   -3.42805         168.218         -42.0961         106.903         -42.0961         106.903       -0.0236232         142.429
0.622                   -3.49105         167.534         -41.9755         104.934         -41.9755         104.934       -0.0239025         142.348
0.623                   -3.55454         166.849         -41.8549         102.965         -41.8549         102.965       -0.0241856         142.266
0.624                    -3.6185         166.161         -41.7344         100.996         -41.7344         100.996       -0.0244724         142.183
0.625                    -3.6829         165.472          -41.614         99.0263          -41.614         99.0263       -0.0247633         142.101
0.626                    -3.7477          164.78         -41.4936         97.0567         -41.4936         97.0567       -0.0250582         142.018
0.627                    -3.8129         164.084         -41.3732         95.0867         -41.3732         95.0867       -0.0253573         141.935
0.628                   -3.87849         163.385         -41.2529         93.1161         -41.2529         93.1161       -0.0256607         141.852
0.629                   -3.94447         162.682         -41.1326         91.1447         -41.1326         91.1447       -0.0259685         141.768
0.63                    -4.01086         161.973         -41.0124         89.1724         -41.0124         89.1724        -0.026281         141.684
0.631                   -4.07769         161.258         -40.8921          87.199         -40.8921          87.199       -0.0265982           141.6
0.632                     -4.145         160.537         -40.7719         85.2243         -40.7719         85.2243       -0.0269204         141.516
0.633                   -4.21288         159.808         -40.6518         83.2483         -40.6518         83.2483       -0.0272477         141.431
0.634                   -4.28142          159.07         -40.5316         81.2707         -40.5316         81.2707       -0.0275803         141.346
0.635                   -4.35072         158.323         -40.4115         79.2914         -40.4115         79.2914       -0.0279184         141.261
0.636                   -4.42094         157.566         -40.2915         77.3103         -40.2915         77.3103       -0.0282622         141.176
0.637                   -4.49222         156.799         -40.1715         75.3271         -40.1715         75.3271        -0.028612          141.09
0.638                   -4.56475          156.02         -40.0516         73.3419         -40.0516         73.3419        -0.028968         141.003
0.639                   -4.63873          155.23         -39.9317         71.3544         -39.9317         71.3544       -0.0293305         140.917
0.64                    -4.71437         154.428         -39.8119         69.3645         -39.8119         69.3645       -0.0296997          140.83
0.641                    -4.7919         153.614         -39.6923         67.3721         -39.6923         67.3721       -0.0300759         140.743
0.642                   -4.87155         152.788         -39.5727         65.3771         -39.5727         65.3771       -0.0304595         140.656
0.643                   -4.95356          151.95         -39.4533         63.3794         -39.4533         63.3794       -0.0308506         140.568
0.644                   -5.03815         151.101         -39.3341         61.3788         -39.3341         61.3788       -0.0312497          140.48
0.645                   -5.12555         150.241          -39.215         59.3754          -39.215         59.3754       -0.0316571         140.391
0.646                   -5.21597         149.371         -39.0961         57.3689         -39.0961         57.3689       -0.0320731         140.303
0.647                   -5.30962         148.493         -38.9774         55.3593         -38.9774         55.3593        -0.032498         140.214
0.648                   -5.40667         147.607          -38.859         53.3467          -38.859         53.3466       -0.0329323         140.124
0.649                   -5.50729         146.714         -38.7408         51.3307         -38.7408         51.3307       -0.0333762         140.034
0.65                    -5.61162         145.815         -38.6229         49.3116         -38.6229         49.3116       -0.0338301         139.944
0.651                   -5.71979         144.913         -38.5053         47.2892         -38.5053         47.2891       -0.0342944         139.854
0.652                   -5.83191         144.007          -38.388         45.2634          -38.388         45.2634       -0.0347693         139.763
0.653                   -5.94807           143.1         -38.2711         43.2343         -38.2711         43.2343       -0.0352553         139.671
0.654                   -6.06834         142.192         -38.1546         41.2019         -38.1546         41.2019       -0.0357525          139.58
0.655                   -6.19279         141.285         -38.0384         39.1661         -38.0384         39.1661       -0.0362613         139.488
0.656                   -6.32147         140.381         -37.9227          37.127         -37.9227          37.127       -0.0367818         139.396
0.657                   -6.45442          139.48         -37.8075         35.0846         -37.8075         35.0846       -0.0373145         139.303
0.658                   -6.59169         138.583         -37.6927          33.039         -37.6927          33.039       -0.0378593          139.21
0.659                    -6.7333         137.693         -37.5785         30.9901         -37.5785         30.9901       -0.0384164         139.116
0.66                    -6.87929         136.809         -37.4648         28.9382         -37.4648         28.9382        -0.038986         139.022
0.661                   -7.02968         135.933         -37.3516         26.8831         -37.3516         26.8831        -0.039568         138.928
0.662                   -7.18451         135.066         -37.2391         24.8251         -37.2391         24.8251       -0.0401625         138.833
0.663                    -7.3438          134.21         -37.1272         22.7642         -37.1272         22.7642       -0.0407695         138.738
0.664                    -7.5076         133.365         -37.0159         20.7005         -37.0159         20.7005       -0.0413887         138.643
0.665                   -7.67593         132.533         -36.9052         18.6342         -36.9052         18.6342       -0.0420202         138.547
0.666                   -7.84883         131.715         -36.7953         16.5654         -36.7953         16.5654       -0.0426637         138.451
0.667                   -8.02635         130.911         -36.6861         14.4942         -36.6861         14.4942       -0.0433189         138.354
0.668                   -8.20852         130.124         -36.5776         12.4208         -36.5776         12.4208       -0.0439858         138.257
0.669                    -8.3954         129.354         -36.4699         10.3454         -36.4699         10.3454       -0.0446639          138.16
0.67                    -8.58703         128.604         -36.3629         8.26812         -36.3629         8.26812        -0.045353         138.062
0.671                   -8.78346         127.874         -36.2567         6.18916         -36.2567         6.18915       -0.0460529         137.963
0.672                   -8.98473         127.167         -36.1514         4.10871         -36.1514         4.10871       -0.0467631         137.865
0.673                    -9.1909         126.483         -36.0468         2.02699         -36.0468         2.02699       -0.0474836         137.765
0.674                   -9.40199         125.825         -35.9431      -0.0557851         -35.9431       -0.055789       -0.0482139         137.666
0.675                   -9.61806         125.196         -35.8403         -2.1394         -35.8403        -2.13941       -0.0489539         137.565
0.676                   -9.83913         124.596         -35.7383        -4.22364         -35.7383        -4.22364       -0.0497033         137.465
0.677                   -10.0652         124.029         -35.6371        -6.30825         -35.6371        -6.30825        -0.050462         137.364
0.678                   -10.2964         123.497         -35.5369          -8.393         -35.5369          -8.393       -0.0512299         137.262
0.679                   -10.5325         123.002         -35.4375        -10.4777         -35.4375        -10.4777       -0.0520068          137.16
0.68                    -10.7737         122.548          -35.339         -12.562          -35.339         -12.562       -0.0527927         137.057
0.681                   -11.0198         122.138         -35.2413        -14.6457         -35.2413        -14.6457       -0.0535877         136.954
0.682                   -11.2707         121.775         -35.1445        -16.7285         -35.1445        -16.7285       -0.0543917          136.85
0.683                   -11.5264         121.463         -35.0486        -18.8103         -35.0486        -18.8103       -0.0552049         136.746
0.684                   -11.7867         121.205         -34.9535        -20.8908         -34.9535        -20.8908       -0.0560275         136.641
0.685                   -12.0514         121.006         -34.8593        -22.9696         -34.8593        -22.9696       -0.0568596         136.536
0.686                   -12.3202          120.87         -34.7659        -25.0466         -34.7659        -25.0466       -0.0577015          136.43
0.687                   -12.5928         120.802         -34.6734        -27.1215         -34.6734        -27.1215       -0.0585535         136.323
0.688                   -12.8688         120.807         -34.5816        -29.1941         -34.5816        -29.1941       -0.0594159         136.216
0.689                   -13.1475         120.889         -34.4906        -31.2641         -34.4906        -31.2641       -0.0602892         136.108
0.69                    -13.4285         121.053         -34.4004        -33.3313         -34.4004        -33.3313       -0.0611737             136
0.691                    -13.711         121.306          -34.311        -35.3955         -34.3109        -35.3955       -0.0620699          135.89
0.692                   -13.9941         121.651         -34.2222        -37.4564         -34.2222        -37.4564       -0.0629783         135.781
0.693                   -14.2767         122.094         -34.1342        -39.5139         -34.1342        -39.5139       -0.0638994          135.67
0.694                   -14.5577         122.639         -34.0468        -41.5678         -34.0468        -41.5678       -0.0648338         135.559
0.695                   -14.8357         123.291           -33.96        -43.6178           -33.96        -43.6178        -0.065782         135.447
0.696                   -15.1091         124.053         -33.8739        -45.6638         -33.8739        -45.6637       -0.0667446         135.334
0.697                   -15.3763         124.926         -33.7883        -47.7055         -33.7883        -47.7055       -0.0677224         135.221