! TOUCHSTONE file generated by CST MICROWAVE STUDIO
! Date and time: Fri Oct  2 16:58:55 2020
! Project name: Scenario_1_Free_Space_out_of_line.cst
! Parameters = {Lambda=346.42; Step_1=17.321; dy1=-137.908; dx1=693; L_HA=400; MT=2.54; Rad_Dielectric=30; Rad_Lower=7.3; Rad_Upper=30; a_HA=580; a_WG=246; b_HA=500; b_WG=121; c_HA=0; c_WG=187; d_feed=85; h_feed=15; h_lower=18; h_upper=40}
! Header version: 2018
! Port assignment regex: !\s*Touchstone port\s*([0-9]+)\s*=\s*(CST MWS port|CST DS port)\s*([0-9]+|Zmin|Zmax)\s*\(\"(.*)\"\)(\s*mode\s*([0-9]+))?.*
! Touchstone port assignment:
! Touchstone port 1 = CST MWS port 1 ("")
! Touchstone port 2 = CST MWS port 2 ("")
# GHz S DB R 50
0.5                     -0.14645        -122.607         -62.6911        -118.265         -62.6911        -118.265      -0.00669328         151.119
0.501                  -0.151093        -123.041         -62.6326        -120.288         -62.6331         -120.29      -0.00675365         151.054
0.502                  -0.155936        -123.478         -62.5693         -122.33         -62.5702        -122.335      -0.00681469         150.989
0.503                  -0.160981        -123.917         -62.5011        -124.391         -62.5023        -124.398      -0.00687638         150.923
0.504                  -0.166233        -124.359         -62.4277        -126.469         -62.4293        -126.479      -0.00693876         150.858
0.505                  -0.171695        -124.802         -62.3492        -128.564         -62.3511        -128.576      -0.00700181         150.792
0.506                  -0.177369        -125.248         -62.2654        -130.674         -62.2677        -130.689      -0.00706556         150.726
0.507                  -0.183261        -125.695         -62.1763        -132.797         -62.1788        -132.815         -0.00713         150.661
0.508                  -0.189374        -126.145         -62.0818        -134.933         -62.0846        -134.953      -0.00719515         150.595
0.509                  -0.195711        -126.597         -61.9818         -137.08         -61.9849        -137.103      -0.00726101         150.529
0.51                   -0.202277        -127.052         -61.8764        -139.237         -61.8797        -139.262       -0.0073276         150.463
0.511                  -0.209075        -127.508         -61.7656        -141.402          -61.769         -141.43      -0.00739492         150.397
0.512                  -0.216109        -127.967         -61.6494        -143.575         -61.6529        -143.605      -0.00746297         150.331
0.513                  -0.223383        -128.428         -61.5277        -145.754         -61.5314        -145.786      -0.00753178         150.265
0.514                  -0.230901        -128.891         -61.4006        -147.937         -61.4044        -147.972      -0.00760135         150.198
0.515                  -0.238667        -129.357         -61.2683        -150.124         -61.2722        -150.161      -0.00767168         150.132
0.516                  -0.246686        -129.825         -61.1307        -152.313         -61.1346        -152.352      -0.00774279         150.065
0.517                   -0.25496        -130.295         -60.9879        -154.503         -60.9919        -154.545      -0.00781469         149.999
0.518                  -0.263495        -130.767         -60.8401        -156.694         -60.8441        -156.737      -0.00788738         149.932
0.519                  -0.272295        -131.241         -60.6874        -158.883         -60.6914        -158.928      -0.00796088         149.865
0.52                   -0.281363        -131.718         -60.5298         -161.07         -60.5338        -161.116       -0.0080352         149.799
0.521                  -0.290705        -132.197         -60.3676        -163.255         -60.3715        -163.302      -0.00811035         149.732
0.522                  -0.300324        -132.679         -60.2008        -165.435         -60.2046        -165.484      -0.00818633         149.665
0.523                  -0.310225        -133.162         -60.0296        -167.612         -60.0334        -167.662      -0.00826317         149.598
0.524                  -0.320412        -133.648         -59.8542        -169.783         -59.8579        -169.834      -0.00834086          149.53
0.525                  -0.330889        -134.136         -59.6747        -171.949         -59.6783        -172.001      -0.00841943         149.463
0.526                  -0.341662        -134.627         -59.4912        -174.109         -59.4947        -174.162      -0.00849888         149.396
0.527                  -0.352734         -135.12         -59.3041        -176.263         -59.3075        -176.316      -0.00857923         149.328
0.528                  -0.364111        -135.615         -59.1133         -178.41         -59.1166        -178.463      -0.00866049         149.261
0.529                  -0.375796        -136.112         -58.9192          179.45         -58.9224         179.396      -0.00874266         149.193
0.53                   -0.387795        -136.612         -58.7219         177.317         -58.7249         177.263      -0.00882577         149.125
0.531                  -0.400112        -137.114         -58.5214         175.191         -58.5243         175.137      -0.00890982         149.058
0.532                  -0.412752        -137.618         -58.3182         173.071         -58.3209         173.018      -0.00899483          148.99
0.533                  -0.425719        -138.125         -58.1122         170.959         -58.1148         170.906      -0.00908082         148.922
0.534                  -0.439019        -138.634         -57.9036         168.854         -57.9061         168.801      -0.00916779         148.854
0.535                  -0.452656        -139.145         -57.6927         166.755         -57.6951         166.703      -0.00925575         148.785
0.536                  -0.466635        -139.659         -57.4796         164.663         -57.4818         164.611      -0.00934474         148.717
0.537                  -0.480961        -140.175         -57.2644         162.576         -57.2665         162.526      -0.00943475         148.649
0.538                  -0.495639        -140.693         -57.0473         160.495         -57.0493         160.446       -0.0095258          148.58
0.539                  -0.510674        -141.214         -56.8285          158.42         -56.8304         158.371      -0.00961791         148.511
0.54                   -0.526071        -141.737         -56.6081         156.349         -56.6099         156.302      -0.00971109         148.443
0.541                  -0.541835        -142.262         -56.3862         154.283         -56.3879         154.237      -0.00980536         148.374
0.542                  -0.557971         -142.79          -56.163         152.221         -56.1646         152.176      -0.00990074         148.305
0.543                  -0.574485         -143.32         -55.9387         150.162         -55.9402         150.118      -0.00999724         148.236
0.544                   -0.59138        -143.852         -55.7133         148.105         -55.7147         148.064       -0.0100949         148.167
0.545                  -0.608663        -144.386          -55.487         146.051         -55.4884         146.011       -0.0101937         148.097
0.546                  -0.626339        -144.923           -55.26         143.999         -55.2612         143.961       -0.0102936         148.028
0.547                  -0.644413        -145.462         -55.0323         141.948         -55.0334         141.911       -0.0103948         147.958
0.548                   -0.66289        -146.004         -54.8041         139.897         -54.8051         139.862       -0.0104971         147.889
0.549                  -0.681776        -146.548         -54.5755         137.846         -54.5764         137.813       -0.0106007         147.819
0.55                   -0.701075        -147.094         -54.3465         135.794         -54.3474         135.763       -0.0107056         147.749
0.551                  -0.720794        -147.642         -54.1174         133.741         -54.1183         133.712       -0.0108117         147.679
0.552                  -0.740938        -148.193         -53.8883         131.686         -53.8891         131.659        -0.010919         147.609
0.553                  -0.761511        -148.746         -53.6592         129.629         -53.6599         129.604       -0.0110277         147.539
0.554                   -0.78252        -149.302         -53.4303         127.568         -53.4309         127.545       -0.0111377         147.469
0.555                   -0.80397        -149.859         -53.2016         125.503         -53.2022         125.483       -0.0112491         147.398
0.556                  -0.825867        -150.419         -52.9734         123.435         -52.9739         123.417       -0.0113618         147.328
0.557                  -0.848216        -150.982         -52.7456         121.361          -52.746         121.345       -0.0114759         147.257
0.558                  -0.871022        -151.546         -52.5184         119.283         -52.5188         119.269       -0.0115914         147.186
0.559                  -0.894292        -152.113         -52.2919         117.198         -52.2922         117.187       -0.0117084         147.115
0.56                   -0.918031        -152.682         -52.0662         115.107         -52.0665         115.098       -0.0118268         147.044
0.561                  -0.942244        -153.253         -51.8415         113.009         -51.8417         113.003       -0.0119467         146.973
0.562                  -0.966937        -153.827         -51.6177         110.905         -51.6179           110.9       -0.0120681         146.902
0.563                  -0.992117        -154.403         -51.3951         108.792         -51.3952          108.79        -0.012191          146.83
0.564                   -1.01779        -154.981         -51.1737         106.672         -51.1737         106.672       -0.0123155         146.758
0.565                   -1.04396        -155.561         -50.9537         104.543         -50.9536         104.545       -0.0124416         146.687
0.566                   -1.07063        -156.144         -50.7351         102.406         -50.7349          102.41       -0.0125692         146.615
0.567                   -1.09781        -156.729          -50.518         100.259         -50.5178         100.266       -0.0126985         146.543
0.568                    -1.1255        -157.316         -50.3026         98.1042         -50.3023         98.1132       -0.0128295         146.471
0.569                   -1.15372        -157.905         -50.0889         95.9396         -50.0885         95.9509       -0.0129622         146.398
0.57                    -1.18246        -158.496         -49.8771         93.7657         -49.8766         93.7791       -0.0130965         146.326
0.571                   -1.21174         -159.09         -49.6672         91.5822         -49.6666         91.5977       -0.0132327         146.253
0.572                   -1.24156        -159.686         -49.4593         89.3891         -49.4587         89.4068       -0.0133706         146.181
0.573                   -1.27191        -160.284         -49.2537         87.1865         -49.2529         87.2062       -0.0135103         146.108
0.574                   -1.30282        -160.884         -49.0502         84.9743         -49.0494         84.9961       -0.0136518         146.035
0.575                   -1.33429        -161.486         -48.8491         82.7527         -48.8481         82.7764       -0.0137952         145.962
0.576                   -1.36632        -162.091         -48.6504         80.5217         -48.6493         80.5473       -0.0139406         145.888
0.577                   -1.39892        -162.697         -48.4543         78.2816         -48.4531         78.3091       -0.0140878         145.815
0.578                    -1.4321        -163.306         -48.2607         76.0325         -48.2594         76.0618       -0.0142371         145.741
0.579                   -1.46585        -163.917         -48.0698         73.7748         -48.0684         73.8058       -0.0143883         145.668
0.58                     -1.5002         -164.53         -47.8817         71.5087         -47.8801         71.5413       -0.0145416         145.594
0.581                   -1.53513        -165.145         -47.6964         69.2346         -47.6946         69.2688       -0.0146969          145.52
0.582                   -1.57067        -165.762         -47.5139         66.9529         -47.5121         66.9886       -0.0148544         145.445
0.583                   -1.60682        -166.382         -47.3345          64.664         -47.3325         64.7011       -0.0150141         145.371
0.584                   -1.64358        -167.003          -47.158         62.3684         -47.1559         62.4068       -0.0151759         145.296
0.585                   -1.68096        -167.627         -46.9846         60.0666         -46.9823         60.1063       -0.0153399         145.222
0.586                   -1.71896        -168.252         -46.8142         57.7592         -46.8118            57.8       -0.0155063         145.147
0.587                    -1.7576         -168.88          -46.647         55.4467         -46.6445         55.4886       -0.0156749         145.072
0.588                   -1.79688        -169.509          -46.483         53.1297         -46.4802         53.1725        -0.015846         144.996
0.589                   -1.83681        -170.141         -46.3221         50.8088         -46.3192         50.8525       -0.0160194         144.921
0.59                    -1.87739        -170.774         -46.1643         48.4847         -46.1613         48.5292       -0.0161952         144.846
0.591                   -1.91863         -171.41         -46.0098          46.158         -46.0067         46.2032       -0.0163736          144.77
0.592                   -1.96054        -172.048         -45.8584         43.8294         -45.8551         43.8751       -0.0165545         144.694
0.593                   -2.00312        -172.687         -45.7102         41.4994         -45.7068         41.5456        -0.016738         144.618
0.594                   -2.04639        -173.329         -45.5652         39.1689         -45.5616         39.2155       -0.0169242         144.541
0.595                   -2.09034        -173.973         -45.4232         36.8384         -45.4195         36.8853        -0.017113         144.465
0.596                     -2.135        -174.618         -45.2843         34.5086         -45.2804         34.5557       -0.0173046         144.388
0.597                   -2.18036        -175.266         -45.1484         32.1801         -45.1444         32.2273       -0.0174989         144.311
0.598                   -2.22643        -175.915         -45.0155         29.8535         -45.0114         29.9008       -0.0176962         144.234
0.599                   -2.27322        -176.566         -44.8855         27.5296         -44.8813         27.5768       -0.0178963         144.157
0.6                     -2.32074         -177.22         -44.7584         25.2088          -44.754         25.2558       -0.0180994          144.08
0.601                   -2.36899        -177.875          -44.634         22.8916         -44.6296         22.9385       -0.0183056         144.002
0.602                   -2.41799        -178.532         -44.5123         20.5788         -44.5078         20.6253       -0.0185148         143.924
0.603                   -2.46774        -179.191         -44.3932         18.2706         -44.3886         18.3169       -0.0187271         143.846
0.604                   -2.51826        -179.852         -44.2766         15.9677          -44.272         16.0135       -0.0189427         143.768
0.605                   -2.56954         179.485         -44.1625         13.6704         -44.1578         13.7157       -0.0191616         143.689
0.606                   -2.62161         178.821         -44.0507         11.3792         -44.0459         11.4239       -0.0193838         143.611
0.607                   -2.67446         178.154         -43.9412         9.09438         -43.9363         9.13851       -0.0196094         143.532
0.608                   -2.72811         177.486         -43.8337         6.81629         -43.8288         6.85976       -0.0198385         143.453
0.609                   -2.78257         176.815         -43.7283         4.54522         -43.7233         4.58798       -0.0200711         143.374
0.61                    -2.83785         176.143         -43.6248         2.28143         -43.6198         2.32342       -0.0203074         143.294
0.611                   -2.89395         175.469         -43.5231        0.025111         -43.5181       0.0663129       -0.0205474         143.214
0.612                   -2.95089         174.794         -43.4231        -2.22355         -43.4181        -2.18318       -0.0207911         143.134
0.613                   -3.00869         174.116         -43.3247        -4.46441         -43.3197        -4.42491       -0.0210387         143.054
0.614                   -3.06734         173.437         -43.2278        -6.69739         -43.2228        -6.65878       -0.0212903         142.974
0.615                   -3.12686         172.755         -43.1323         -8.9224         -43.1272        -8.88471       -0.0215459         142.893
0.616                   -3.18726         172.072          -43.038        -11.1394          -43.033        -11.1027       -0.0218056         142.812
0.617                   -3.24857         171.388         -42.9449        -13.3485         -42.9399        -13.3127       -0.0220695         142.731
0.618                   -3.31077         170.701         -42.8528        -15.5496         -42.8479        -15.5147       -0.0223378          142.65
0.619                    -3.3739         170.013         -42.7617        -17.7428         -42.7568        -17.7089       -0.0226103         142.568
0.62                    -3.43796         169.323         -42.6715        -19.9282         -42.6666        -19.8953       -0.0228874         142.486
0.621                   -3.50297         168.631          -42.582        -22.1059         -42.5772         -22.074       -0.0231691         142.404
0.622                   -3.56894         167.937         -42.4932        -24.2761         -42.4884        -24.2452       -0.0234554         142.322
0.623                   -3.63588         167.242         -42.4049        -26.4389         -42.4002         -26.409       -0.0237465         142.239
0.624                   -3.70382         166.544         -42.3171        -28.5945         -42.3124        -28.5657       -0.0240426         142.156
0.625                   -3.77276         165.845         -42.2297        -30.7432         -42.2251        -30.7154       -0.0243436         142.073
0.626                   -3.84272         165.145         -42.1426        -32.8851         -42.1381        -32.8583       -0.0246497          141.99
0.627                   -3.91373         164.442         -42.0557        -35.0205         -42.0513        -34.9947       -0.0249611         141.906
0.628                   -3.98579         163.738         -41.9689        -37.1497         -41.9646        -37.1249       -0.0252778         141.822
0.629                   -4.05892         163.033         -41.8823         -39.273          -41.878        -39.2491          -0.0256         141.738
0.63                    -4.13315         162.325         -41.7956        -41.3905         -41.7914        -41.3676       -0.0259277         141.653
0.631                   -4.20849         161.616         -41.7088        -43.5027         -41.7048        -43.4807       -0.0262612         141.568
0.632                   -4.28497         160.905         -41.6219        -45.6098          -41.618        -45.5888       -0.0266006         141.483
0.633                    -4.3626         160.193         -41.5349        -47.7122          -41.531         -47.692       -0.0269459         141.398
0.634                    -4.4414         159.478         -41.4475        -49.8101         -41.4438        -49.7909       -0.0272973         141.312
0.635                   -4.52141         158.763         -41.3599         -51.904         -41.3563        -51.8856       -0.0276551         141.226
0.636                   -4.60264         158.045         -41.2719         -53.994         -41.2684        -53.9765       -0.0280192          141.14
0.637                   -4.68511         157.326         -41.1835        -56.0807         -41.1801         -56.064       -0.0283899         141.053
0.638                   -4.76886         156.606         -41.0946        -58.1643         -41.0913        -58.1484       -0.0287674         140.967
0.639                   -4.85392         155.883         -41.0053        -60.2451         -41.0021          -60.23       -0.0291517         140.879
0.64                     -4.9403          155.16         -40.9154        -62.3236         -40.9124        -62.3093       -0.0295431         140.792
0.641                   -5.02803         154.435          -40.825           -64.4          -40.822        -64.3864       -0.0299417         140.704
0.642                   -5.11716         153.708          -40.734        -66.4747         -40.7311        -66.4619       -0.0303477         140.616
0.643                    -5.2077          152.98         -40.6423         -68.548         -40.6396         -68.536       -0.0307613         140.527
0.644                    -5.2997         152.251         -40.5501        -70.6204         -40.5474         -70.609       -0.0311826         140.438
0.645                   -5.39319          151.52         -40.4571        -72.6921         -40.4546        -72.6814       -0.0316119         140.349
0.646                    -5.4882         150.788         -40.3635        -74.7635          -40.361        -74.7534       -0.0320493          140.26
0.647                   -5.58477         150.054         -40.2691        -76.8349         -40.2668        -76.8255        -0.032495          140.17
0.648                   -5.68295          149.32          -40.174        -78.9067         -40.1718        -78.8978       -0.0329493         140.079
0.649                   -5.78277         148.584         -40.0782        -80.9791         -40.0761        -80.9708       -0.0334123         139.989
0.65                    -5.88427         147.847         -39.9817        -83.0526         -39.9797        -83.0449       -0.0338843         139.898
0.651                    -5.9875          147.11         -39.8845        -85.1273         -39.8826        -85.1202       -0.0343654         139.807
0.652                   -6.09251         146.371         -39.7864        -87.2038         -39.7847        -87.1971        -0.034856         139.715
0.653                   -6.19935         145.632         -39.6877        -89.2821          -39.686         -89.276       -0.0353563         139.623
0.654                   -6.30807         144.891         -39.5882        -91.3627         -39.5866        -91.3571       -0.0358664          139.53
0.655                   -6.41871         144.151          -39.488        -93.4459         -39.4865        -93.4407       -0.0363866         139.437
0.656                   -6.53135          143.41         -39.3871        -95.5319         -39.3857        -95.5271       -0.0369172         139.344
0.657                   -6.64604         142.668         -39.2854         -97.621         -39.2841        -97.6166       -0.0374585          139.25
0.658                   -6.76283         141.927         -39.1831        -99.7135         -39.1819        -99.7095       -0.0380106         139.156
0.659                    -6.8818         141.185         -39.0801         -101.81         -39.0789        -101.806        -0.038574         139.062
0.66                      -7.003         140.444         -38.9764         -103.91         -38.9753        -103.906       -0.0391487         138.967
0.661                   -7.12652         139.703          -38.872        -106.014         -38.8711        -106.011       -0.0397352         138.872
0.662                   -7.25242         138.963         -38.7671        -108.122         -38.7662         -108.12       -0.0403337         138.776
0.663                   -7.38078         138.223         -38.6616        -110.235         -38.6608        -110.233       -0.0409446          138.68
0.664                   -7.51169         137.485         -38.5555        -112.353         -38.5547        -112.351        -0.041568         138.583
0.665                   -7.64522         136.748         -38.4488        -114.476         -38.4482        -114.474       -0.0422043         138.486
0.666                   -7.78146         136.014         -38.3417        -116.604         -38.3411        -116.602       -0.0428539         138.388
0.667                    -7.9205         135.281          -38.234        -118.737         -38.2335        -118.736        -0.043517          138.29
0.668                   -8.06245         134.551          -38.126        -120.876         -38.1255        -120.875       -0.0441939         138.192
0.669                   -8.20739         133.824         -38.0175         -123.02         -38.0171        -123.019       -0.0448851         138.093
0.67                    -8.35544         133.101         -37.9087         -125.17         -37.9084         -125.17       -0.0455907         137.994
0.671                    -8.5067         132.381         -37.7996        -127.327         -37.7993        -127.326       -0.0463112         137.894
0.672                   -8.66129         131.667         -37.6902        -129.488         -37.6899        -129.488       -0.0470469         137.793
0.673                   -8.81931         130.958         -37.5805        -131.656         -37.5804        -131.656       -0.0477981         137.692
0.674                    -8.9809         130.254         -37.4707        -133.831         -37.4706         -133.83       -0.0485652         137.591
0.675                   -9.14618         129.558         -37.3607        -136.011         -37.3606        -136.011       -0.0493485         137.489
0.676                   -9.31528         128.869         -37.2507        -138.197         -37.2506        -138.197       -0.0501483         137.387
0.677                   -9.48834          128.19         -37.1405         -140.39         -37.1405         -140.39       -0.0509651         137.284
0.678                   -9.66549         127.519         -37.0304        -142.588         -37.0304        -142.588        -0.051799          137.18
0.679                   -9.84687          126.86         -36.9203        -144.793         -36.9204        -144.793       -0.0526506         137.076
0.68                    -10.0327         126.213         -36.8104        -147.004         -36.8104        -147.004       -0.0535201         136.972
0.681                    -10.223          125.58         -36.7005        -149.221         -36.7006        -149.221       -0.0544078         136.866
0.682                    -10.418         124.961         -36.5909        -151.444          -36.591        -151.444       -0.0553141         136.761
0.683                   -10.6178          124.36         -36.4815        -153.673         -36.4816        -153.673       -0.0562393         136.654
0.684                   -10.8227         123.777         -36.3724        -155.907         -36.3725        -155.907       -0.0571837         136.548
0.685                   -11.0327         123.215         -36.2636        -158.147         -36.2638        -158.147       -0.0581476          136.44
0.686                    -11.248         122.676         -36.1552        -160.392         -36.1554        -160.392       -0.0591314         136.332
0.687                   -11.4688         122.162         -36.0473        -162.642         -36.0475        -162.642       -0.0601352         136.223
0.688                   -11.6951         121.676         -35.9398        -164.898           -35.94        -164.898       -0.0611594         136.114
0.689                   -11.9273         121.222         -35.8328        -167.158          -35.833        -167.158       -0.0622043         136.004
0.69                    -12.1652         120.803         -35.7264        -169.422         -35.7267        -169.422       -0.0632701         135.894
0.691                   -12.4092         120.421         -35.6207        -171.691         -35.6209        -171.691       -0.0643569         135.782
0.692                   -12.6591         120.082         -35.5155        -173.964         -35.5157        -173.964       -0.0654651         135.671
0.693                   -12.9152          119.79          -35.411         -176.24         -35.4112         -176.24       -0.0665949         135.558
0.694                   -13.1773         119.548         -35.3072         -178.52         -35.3074         -178.52       -0.0677464         135.445
0.695                   -13.4455         119.364         -35.2042         179.197         -35.2044         179.197       -0.0689198         135.331
0.696                   -13.7196         119.242         -35.1019         176.911         -35.1021         176.911       -0.0701153         135.216
0.697                   -13.9995         119.188         -35.0004         174.623         -35.0006         174.623        -0.071333         135.101