! TOUCHSTONE file generated by CST MICROWAVE STUDIO
! Date and time: Fri Oct  2 16:53:12 2020
! Project name: Scenario_1_Free_Space_out_of_line.cst
! Parameters = {Lambda=346.42; Step_1=17.321; dy1=330.299; dx1=693; L_HA=400; MT=2.54; Rad_Dielectric=30; Rad_Lower=7.3; Rad_Upper=30; a_HA=580; a_WG=246; b_HA=500; b_WG=121; c_HA=0; c_WG=187; d_feed=85; h_feed=15; h_lower=18; h_upper=40}
! Header version: 2018
! Port assignment regex: !\s*Touchstone port\s*([0-9]+)\s*=\s*(CST MWS port|CST DS port)\s*([0-9]+|Zmin|Zmax)\s*\(\"(.*)\"\)(\s*mode\s*([0-9]+))?.*
! Touchstone port assignment:
! Touchstone port 1 = CST MWS port 1 ("")
! Touchstone port 2 = CST MWS port 2 ("")
# GHz S DB R 50
0.5                    -0.149985        -122.547          -64.729         -146.03          -64.729         -146.03       -0.0067029         151.162
0.501                  -0.153043        -122.981         -64.5882        -148.102         -64.5881        -148.101      -0.00676008         151.097
0.502                  -0.156359        -123.418         -64.4445        -150.181         -64.4443        -150.179      -0.00681814         151.031
0.503                  -0.159934        -123.858         -64.2979        -152.265         -64.2977        -152.262      -0.00687708         150.966
0.504                  -0.163775          -124.3         -64.1486        -154.354         -64.1483         -154.35       -0.0069369           150.9
0.505                  -0.167883        -124.744         -63.9965        -156.449         -63.9961        -156.444      -0.00699762         150.835
0.506                  -0.172264        -125.191         -63.8416        -158.548         -63.8412        -158.542      -0.00705923         150.769
0.507                  -0.176921        -125.641         -63.6842        -160.652         -63.6838        -160.645      -0.00712173         150.704
0.508                  -0.181857        -126.093         -63.5243         -162.76         -63.5238        -162.752      -0.00718513         150.638
0.509                  -0.187077        -126.548         -63.3618        -164.872         -63.3613        -164.864      -0.00724944         150.572
0.51                   -0.192585        -127.005          -63.197        -166.988         -63.1964        -166.979      -0.00731466         150.506
0.511                  -0.198384        -127.465         -63.0299        -169.107         -63.0293        -169.098      -0.00738079          150.44
0.512                  -0.204478        -127.927         -62.8606         -171.23           -62.86         -171.22      -0.00744783         150.374
0.513                  -0.210871        -128.392         -62.6891        -173.356         -62.6885        -173.346       -0.0075158         150.308
0.514                  -0.217566        -128.859         -62.5156        -175.486         -62.5149        -175.475       -0.0075847         150.242
0.515                  -0.224568        -129.328         -62.3402        -177.619         -62.3395        -177.607      -0.00765453         150.175
0.516                  -0.231879          -129.8         -62.1628        -179.754         -62.1621        -179.742      -0.00772529         150.109
0.517                  -0.239505        -130.275         -61.9838         178.107          -61.983          178.12      -0.00779699         150.042
0.518                  -0.247447        -130.752          -61.803         175.966         -61.8023         175.978      -0.00786965         149.976
0.519                  -0.255711        -131.231         -61.6206         173.821         -61.6199         173.834      -0.00794325         149.909
0.52                     -0.2643        -131.713         -61.4368         171.673         -61.4361         171.687      -0.00801781         149.842
0.521                  -0.273216        -132.197         -61.2516         169.523         -61.2508         169.537      -0.00809334         149.775
0.522                  -0.282465        -132.683          -61.065         167.369         -61.0643         167.383      -0.00816984         149.708
0.523                  -0.292049        -133.172         -60.8773         165.213         -60.8766         165.227      -0.00824731         149.641
0.524                  -0.301972        -133.663         -60.6885         163.053         -60.6877         163.067      -0.00832577         149.574
0.525                  -0.312237        -134.157         -60.4986          160.89         -60.4979         160.904      -0.00840521         149.507
0.526                  -0.322848        -134.653         -60.3078         158.723         -60.3071         158.737      -0.00848565          149.44
0.527                  -0.333808        -135.151         -60.1163         156.553         -60.1156         156.567      -0.00856709         149.372
0.528                  -0.345121        -135.652          -59.924          154.38         -59.9233         154.394      -0.00864955         149.305
0.529                   -0.35679        -136.155          -59.731         152.202         -59.7303         152.217      -0.00873302         149.237
0.53                   -0.368819         -136.66         -59.5375         150.022         -59.5369         150.036      -0.00881751         149.169
0.531                   -0.38121        -137.167         -59.3436         147.837          -59.343         147.851      -0.00890304         149.102
0.532                  -0.393967        -137.677         -59.1493         145.648         -59.1487         145.662      -0.00898961         149.034
0.533                  -0.407094        -138.189         -58.9548         143.455         -58.9542         143.468      -0.00907723         148.966
0.534                  -0.420593        -138.704         -58.7601         141.258         -58.7595         141.271      -0.00916591         148.898
0.535                  -0.434467         -139.22         -58.5653         139.056         -58.5647         139.069      -0.00925566          148.83
0.536                   -0.44872        -139.739         -58.3705          136.85         -58.3699         136.863      -0.00934648         148.761
0.537                  -0.463355         -140.26         -58.1758         134.639         -58.1752         134.652       -0.0094384         148.693
0.538                  -0.478375        -140.783         -57.9812         132.424         -57.9807         132.436       -0.0095314         148.624
0.539                  -0.493783        -141.309          -57.787         130.204         -57.7864         130.216      -0.00962552         148.556
0.54                   -0.509582        -141.836          -57.593         127.979         -57.5925          127.99      -0.00972075         148.487
0.541                  -0.525775        -142.366         -57.3995         125.749          -57.399          125.76      -0.00981711         148.418
0.542                  -0.542364        -142.898         -57.2065         123.514          -57.206         123.525      -0.00991461         148.349
0.543                  -0.559354        -143.433         -57.0141         121.275         -57.0136         121.285       -0.0100133          148.28
0.544                  -0.576746        -143.969         -56.8224          119.03         -56.8219          119.04       -0.0101131         148.211
0.545                  -0.594544        -144.508         -56.6313          116.78         -56.6309          116.79       -0.0102141         148.142
0.546                   -0.61275        -145.048         -56.4411         114.525         -56.4406         114.534       -0.0103163         148.073
0.547                  -0.631368        -145.591         -56.2517         112.266         -56.2513         112.274       -0.0104197         148.003
0.548                    -0.6504        -146.136         -56.0633         110.001         -56.0629         110.009       -0.0105243         147.934
0.549                  -0.669849        -146.683         -55.8759         107.731         -55.8755         107.739       -0.0106301         147.864
0.55                   -0.689717        -147.232         -55.6896         105.457         -55.6892         105.464       -0.0107372         147.794
0.551                  -0.710008        -147.784         -55.5044         103.177          -55.504         103.184       -0.0108455         147.724
0.552                  -0.730724        -148.337         -55.3204         100.893           -55.32           100.9       -0.0109551         147.654
0.553                  -0.751868        -148.893         -55.1376          98.605         -55.1373         98.6107        -0.011066         147.584
0.554                  -0.773443         -149.45         -54.9561         96.3121         -54.9558         96.3174       -0.0111783         147.514
0.555                  -0.795451         -150.01          -54.776         94.0148         -54.7757         94.0197       -0.0112918         147.443
0.556                  -0.817895        -150.572         -54.5972         91.7135          -54.597          91.718       -0.0114067         147.373
0.557                  -0.840778        -151.135         -54.4199         89.4083         -54.4197         89.4123        -0.011523         147.302
0.558                  -0.864103        -151.701         -54.2441         87.0992         -54.2438         87.1028       -0.0116406         147.232
0.559                  -0.887872        -152.269         -54.0697         84.7867         -54.0695         84.7898       -0.0117597         147.161
0.56                   -0.912089        -152.839         -53.8969         82.4707         -53.8967         82.4735       -0.0118801          147.09
0.561                  -0.936756        -153.412         -53.7257         80.1517         -53.7255         80.1541       -0.0120021         147.018
0.562                  -0.961875        -153.986          -53.556         77.8298         -53.5559         77.8318       -0.0121254         146.947
0.563                  -0.987451        -154.562          -53.388         75.5052         -53.3878         75.5068       -0.0122503         146.876
0.564                   -1.01349         -155.14         -53.2216         73.1782         -53.2214         73.1795       -0.0123767         146.804
0.565                   -1.03998        -155.721         -53.0568         70.8491         -53.0567           70.85       -0.0125046         146.733
0.566                   -1.06694        -156.303         -52.8936         68.5181         -52.8936         68.5187       -0.0126341         146.661
0.567                   -1.09437        -156.888         -52.7321         66.1854         -52.7321         66.1857       -0.0127652         146.589
0.568                   -1.12227        -157.475         -52.5723         63.8515         -52.5723         63.8515       -0.0128979         146.517
0.569                   -1.15064        -158.063         -52.4141         61.5164         -52.4141         61.5161       -0.0130322         146.444
0.57                    -1.17949        -158.654         -52.2576         59.1804         -52.2576         59.1799       -0.0131682         146.372
0.571                   -1.20883        -159.247         -52.1027          56.844         -52.1027         56.8432       -0.0133059           146.3
0.572                   -1.23864        -159.842         -51.9494         54.5072         -51.9495         54.5061       -0.0134453         146.227
0.573                   -1.26895        -160.439         -51.7978         52.1703         -51.7978         52.1691       -0.0135865         146.154
0.574                   -1.29974        -161.039         -51.6477         49.8336         -51.6478         49.8322       -0.0137295         146.081
0.575                   -1.33104         -161.64         -51.4992         47.4974         -51.4993         47.4958       -0.0138743         146.008
0.576                   -1.36283        -162.244         -51.3522         45.1618         -51.3523           45.16       -0.0140209         145.935
0.577                   -1.39512         -162.85         -51.2067         42.8271         -51.2069         42.8252       -0.0141695         145.861
0.578                   -1.42793        -163.458         -51.0627         40.4935         -51.0629         40.4914         -0.01432         145.788
0.579                   -1.46124        -164.068         -50.9202         38.1611         -50.9204          38.159       -0.0144724         145.714
0.58                    -1.49508         -164.68         -50.7791         35.8303         -50.7793          35.828       -0.0146269          145.64
0.581                   -1.52943        -165.295         -50.6393         33.5011         -50.6395         33.4987       -0.0147834         145.566
0.582                   -1.56431        -165.911         -50.5009         31.1737         -50.5011         31.1713        -0.014942         145.492
0.583                   -1.59973        -166.531         -50.3638         28.8482          -50.364         28.8458       -0.0151027         145.418
0.584                   -1.63568        -167.152         -50.2279         26.5249         -50.2281         26.5224       -0.0152656         145.343
0.585                   -1.67218        -167.776         -50.0932         24.2038         -50.0935         24.2013       -0.0154307         145.269
0.586                   -1.70922        -168.402         -49.9597         21.8849         -49.9599         21.8824       -0.0155981         145.194
0.587                   -1.74683         -169.03         -49.8273         19.5685         -49.8275          19.566       -0.0157678         145.119
0.588                   -1.78499        -169.661         -49.6959         17.2546         -49.6962          17.252       -0.0159399         145.043
0.589                   -1.82372        -170.294         -49.5656         14.9431         -49.5659         14.9406       -0.0161144         144.968
0.59                    -1.86303        -170.929         -49.4363         12.6342         -49.4365         12.6318       -0.0162913         144.893
0.591                   -1.90293        -171.567         -49.3078         10.3279         -49.3081         10.3255       -0.0164708         144.817
0.592                   -1.94341        -172.208         -49.1803         8.02421         -49.1805         8.02185       -0.0166528         144.741
0.593                    -1.9845        -172.851         -49.0535         5.72309         -49.0538         5.72079       -0.0168375         144.665
0.594                    -2.0262        -173.497         -48.9276         3.42454         -48.9278         3.42231       -0.0170248         144.589
0.595                   -2.06851        -174.145         -48.8024         1.12852         -48.8026         1.12636       -0.0172149         144.512
0.596                   -2.11145        -174.795         -48.6778        -1.16502         -48.6781         -1.1671       -0.0174078         144.435
0.597                   -2.15503        -175.449          -48.554        -3.45613         -48.5542        -3.45812       -0.0176037         144.359
0.598                   -2.19926        -176.105         -48.4307        -5.74489         -48.4309        -5.74679       -0.0178024         144.282
0.599                   -2.24415        -176.764         -48.3079        -8.03139         -48.3082         -8.0332       -0.0180042         144.204
0.6                     -2.28971        -177.425         -48.1857        -10.3157          -48.186        -10.3174        -0.018209         144.127
0.601                   -2.33596        -178.089          -48.064         -12.598         -48.0642        -12.5996        -0.018417         144.049
0.602                    -2.3829        -178.756         -47.9427        -14.8783         -47.9429        -14.8798       -0.0186282         143.972
0.603                   -2.43055        -179.426         -47.8218        -17.1569          -47.822        -17.1582       -0.0188427         143.894
0.604                   -2.47892         179.901         -47.7012        -19.4337         -47.7014         -19.435       -0.0190606         143.815
0.605                   -2.52804         179.225          -47.581         -21.709         -47.5812        -21.7102        -0.019282         143.737
0.606                    -2.5779         178.546         -47.4611        -23.9829         -47.4613         -23.984       -0.0195069         143.658
0.607                   -2.62854         177.865         -47.3415        -26.2556         -47.3416        -26.2566       -0.0197354         143.579
0.608                   -2.67997          177.18         -47.2221        -28.5273         -47.2222        -28.5282       -0.0199677           143.5
0.609                    -2.7322         176.492         -47.1029        -30.7981          -47.103        -30.7988       -0.0202037         143.421
0.61                    -2.78526         175.801         -46.9839        -33.0681          -46.984        -33.0688       -0.0204437         143.342
0.611                   -2.83916         175.107         -46.8651        -35.3376         -46.8651        -35.3382       -0.0206876         143.262
0.612                   -2.89392          174.41         -46.7464        -37.6068         -46.7464        -37.6072       -0.0209356         143.182
0.613                   -2.94957          173.71         -46.6278        -39.8758         -46.6279        -39.8761       -0.0211878         143.102
0.614                   -3.00612         173.006         -46.5094        -42.1448         -46.5094         -42.145       -0.0214442         143.021
0.615                   -3.06361         172.299          -46.391         -44.414          -46.391        -44.4141       -0.0217051         142.941
0.616                   -3.12205         171.589         -46.2727        -46.6835         -46.2727        -46.6836       -0.0219704          142.86
0.617                   -3.18147         170.876         -46.1545        -48.9537         -46.1545        -48.9537       -0.0222403         142.779
0.618                    -3.2419         170.159         -46.0364        -51.2246         -46.0364        -51.2245       -0.0225149         142.697
0.619                   -3.30337         169.439         -45.9184        -53.4965         -45.9183        -53.4963       -0.0227944         142.616
0.62                     -3.3659         168.715         -45.8003        -55.7694         -45.8003        -55.7692       -0.0230787         142.534
0.621                   -3.42952         167.989         -45.6824        -58.0437         -45.6823        -58.0434       -0.0233681         142.452
0.622                   -3.49427         167.258         -45.5645        -60.3194         -45.5644        -60.3191       -0.0236627         142.369
0.623                   -3.56017         166.525         -45.4467        -62.5968         -45.4466        -62.5964       -0.0239626         142.287
0.624                   -3.62727         165.788         -45.3289         -64.876         -45.3288        -64.8756       -0.0242679         142.204
0.625                    -3.6956         165.047         -45.2112        -67.1572          -45.211        -67.1567       -0.0245787         142.121
0.626                   -3.76519         164.304         -45.0935        -69.4404         -45.0934        -69.4399       -0.0248952         142.037
0.627                   -3.83608         163.557          -44.976         -71.726         -44.9758        -71.7254       -0.0252174         141.954
0.628                   -3.90831         162.806         -44.8585        -74.0139         -44.8584        -74.0133       -0.0255456          141.87
0.629                   -3.98193         162.053         -44.7412        -76.3044          -44.741        -76.3038       -0.0258799         141.785
0.63                    -4.05697         161.296          -44.624        -78.5975         -44.6238        -78.5969       -0.0262204         141.701
0.631                   -4.13348         160.536         -44.5069        -80.8934         -44.5067        -80.8928       -0.0265672         141.616
0.632                    -4.2115         159.773         -44.3899        -83.1922         -44.3897        -83.1916       -0.0269205         141.531
0.633                   -4.29109         159.007         -44.2732         -85.494          -44.273        -85.4933       -0.0272805         141.446
0.634                   -4.37229         158.238         -44.1566        -87.7988         -44.1564        -87.7982       -0.0276472          141.36
0.635                   -4.45514         157.466         -44.0403        -90.1068           -44.04        -90.1061       -0.0280208         141.274
0.636                   -4.53971         156.692         -43.9242        -92.4179         -43.9239        -92.4173       -0.0284015         141.188
0.637                   -4.62604         155.915         -43.8083        -94.7323         -43.8081        -94.7317       -0.0287894         141.101
0.638                    -4.7142         155.136         -43.6928          -97.05         -43.6925        -97.0494       -0.0291847         141.014
0.639                   -4.80422         154.354         -43.5775         -99.371         -43.5772        -99.3704       -0.0295874         140.927
0.64                    -4.89618         153.571         -43.4626        -101.695         -43.4623        -101.695       -0.0299979          140.84
0.641                   -4.99013         152.785          -43.348        -104.023         -43.3478        -104.022       -0.0304162         140.752
0.642                   -5.08614         151.998         -43.2339        -106.354         -43.2336        -106.353       -0.0308424         140.664
0.643                   -5.18425          151.21         -43.1201        -108.688         -43.1198        -108.688       -0.0312768         140.575
0.644                   -5.28453         150.421         -43.0068        -111.026         -43.0065        -111.025       -0.0317194         140.486
0.645                   -5.38705         149.631         -42.8939        -113.367         -42.8937        -113.366       -0.0321704         140.397
0.646                   -5.49187          148.84         -42.7816        -115.711         -42.7813         -115.71       -0.0326301         140.308
0.647                   -5.59906          148.05         -42.6697        -118.058         -42.6695        -118.057       -0.0330984         140.218
0.648                   -5.70867         147.259         -42.5584        -120.408         -42.5582        -120.407       -0.0335757         140.128
0.649                   -5.82078          146.47         -42.4477         -122.76         -42.4475         -122.76       -0.0340619         140.037
0.65                    -5.93545         145.682         -42.3376        -125.116         -42.3373        -125.116       -0.0345574         139.946
0.651                   -6.05274         144.895         -42.2281        -127.474         -42.2278        -127.474       -0.0350621         139.855
0.652                   -6.17272         144.111         -42.1192        -129.835          -42.119        -129.835       -0.0355763         139.764
0.653                   -6.29545         143.329          -42.011        -132.199         -42.0108        -132.198          -0.0361         139.672
0.654                     -6.421         142.551         -41.9035        -134.564         -41.9033        -134.564       -0.0366335         139.579
0.655                   -6.54943         141.777         -41.7967        -136.932         -41.7965        -136.932       -0.0371768         139.487
0.656                    -6.6808         141.007         -41.6906        -139.301         -41.6904        -139.301       -0.0377301         139.394
0.657                   -6.81516         140.244         -41.5853        -141.672         -41.5851        -141.672       -0.0382934           139.3
0.658                   -6.95257         139.486         -41.4807        -144.045         -41.4805        -144.045        -0.038867         139.206
0.659                   -7.09309         138.735         -41.3769        -146.419         -41.3767        -146.419       -0.0394509         139.112
0.66                    -7.23676         137.992         -41.2739        -148.794         -41.2737        -148.794       -0.0400452         139.017
0.661                   -7.38362         137.258         -41.1716         -151.17         -41.1715         -151.17       -0.0406501         138.922
0.662                   -7.53373         136.534         -41.0702        -153.546           -41.07        -153.546       -0.0412656         138.827
0.663                   -7.68711         135.821         -40.9696        -155.923         -40.9694        -155.923       -0.0418917         138.731
0.664                   -7.84379          135.12         -40.8697        -158.301         -40.8696        -158.301       -0.0425287         138.634
0.665                    -8.0038         134.431         -40.7707        -160.678         -40.7706        -160.678       -0.0431766         138.538
0.666                   -8.16714         133.757         -40.6725        -163.055         -40.6724        -163.055       -0.0438355          138.44
0.667                   -8.33384         133.098         -40.5751        -165.431          -40.575        -165.432       -0.0445054         138.343
0.668                   -8.50388         132.456         -40.4785        -167.807         -40.4784        -167.807       -0.0451864         138.245
0.669                   -8.67726         131.831         -40.3828        -170.182         -40.3827        -170.182       -0.0458786         138.146
0.67                    -8.85396         131.226         -40.2878        -172.556         -40.2877        -172.556        -0.046582         138.047
0.671                   -9.03393         130.642         -40.1935        -174.929         -40.1935        -174.929       -0.0472968         137.947
0.672                   -9.21714          130.08         -40.1001        -177.299            -40.1          -177.3        -0.048023         137.847
0.673                   -9.40352         129.541         -40.0074        -179.669         -40.0074        -179.669       -0.0487606         137.747
0.674                   -9.59301         129.028         -39.9155         177.964         -39.9154         177.964       -0.0495097         137.646
0.675                    -9.7855         128.542         -39.8242         175.599         -39.8242         175.599       -0.0502705         137.544
0.676                    -9.9809         128.084         -39.7337         173.237         -39.7337         173.237       -0.0510429         137.442
0.677                   -10.1791         127.656         -39.6438         170.877         -39.6438         170.877       -0.0518272          137.34
0.678                   -10.3799         127.259         -39.5546          168.52         -39.5546          168.52       -0.0526234         137.237
0.679                   -10.5832         126.896          -39.466         166.165          -39.466         166.165       -0.0534316         137.133
0.68                    -10.7887         126.567         -39.3781         163.814         -39.3781         163.814       -0.0542519         137.029
0.681                   -10.9964         126.275         -39.2907         161.466         -39.2907         161.466       -0.0550846         136.924
0.682                   -11.2059         126.021         -39.2038         159.121         -39.2039         159.121       -0.0559298         136.819
0.683                   -11.4169         125.807         -39.1175         156.779         -39.1175         156.779       -0.0567877         136.713
0.684                   -11.6293         125.633         -39.0317         154.442         -39.0317         154.442       -0.0576586         136.606
0.685                   -11.8426         125.502         -38.9463         152.107         -38.9463         152.107       -0.0585427         136.499
0.686                   -12.0566         125.415         -38.8614         149.777         -38.8614         149.777       -0.0594403         136.392
0.687                   -12.2709         125.373         -38.7768          147.45         -38.7768          147.45       -0.0603517         136.283
0.688                   -12.4851         125.378         -38.6926         145.127         -38.6927         145.127       -0.0612774         136.174
0.689                   -12.6987         125.429         -38.6088         142.808         -38.6088         142.808       -0.0622178         136.064
0.69                    -12.9114         125.528         -38.5252         140.493         -38.5252         140.493       -0.0631733         135.954
0.691                   -13.1227         125.675         -38.4419         138.182         -38.4419         138.182       -0.0641444         135.843
0.692                    -13.332         125.871         -38.3588         135.875         -38.3588         135.875       -0.0651318         135.731
0.693                    -13.539         126.115         -38.2759         133.572          -38.276         133.572        -0.066136         135.619
0.694                    -13.743         126.408         -38.1932         131.272         -38.1932         131.273       -0.0671576         135.505
0.695                   -13.9435         126.749         -38.1106         128.977         -38.1106         128.977       -0.0681975         135.391
0.696                     -14.14         127.137         -38.0281         126.685         -38.0281         126.686       -0.0692564         135.276
0.697                   -14.3319         127.571         -37.9457         124.398         -37.9457         124.398       -0.0703351         135.161