! TOUCHSTONE file generated by CST MICROWAVE STUDIO
! Date and time: Fri Oct  2 18:58:50 2020
! Project name: Scenario_1_Free_Space_out_of_line.cst
! Parameters = {Lambda=346.42; Step_1=17.321; dy1=-155.249; dx1=1039; L_HA=400; MT=2.54; Rad_Dielectric=30; Rad_Lower=7.3; Rad_Upper=30; a_HA=580; a_WG=246; b_HA=500; b_WG=121; c_HA=0; c_WG=187; d_feed=85; h_feed=15; h_lower=18; h_upper=40}
! Header version: 2018
! Port assignment regex: !\s*Touchstone port\s*([0-9]+)\s*=\s*(CST MWS port|CST DS port)\s*([0-9]+|Zmin|Zmax)\s*\(\"(.*)\"\)(\s*mode\s*([0-9]+))?.*
! Touchstone port assignment:
! Touchstone port 1 = CST MWS port 1 ("")
! Touchstone port 2 = CST MWS port 2 ("")
# GHz S DB R 50
0.5                    -0.147791        -122.542         -64.1008         45.3139         -64.1008         45.3139      -0.00672723         151.116
0.501                  -0.149955         -122.98         -63.9892         43.0469         -63.9892         43.0475        -0.006779         151.051
0.502                  -0.152436         -123.42         -63.8737         40.7618         -63.8738          40.763      -0.00683162         150.986
0.503                  -0.155238        -123.863         -63.7543         38.4593         -63.7544          38.461      -0.00688509          150.92
0.504                  -0.158362        -124.307          -63.631           36.14         -63.6311         36.1422      -0.00693944         150.855
0.505                   -0.16181        -124.754         -63.5037         33.8045         -63.5038         33.8072      -0.00699468         150.789
0.506                  -0.165586        -125.204         -63.3725         31.4534         -63.3726         31.4567      -0.00705081         150.723
0.507                  -0.169692        -125.655         -63.2373         29.0875         -63.2375         29.0912      -0.00710785         150.658
0.508                   -0.17413        -126.109         -63.0983         26.7074         -63.0984         26.7115      -0.00716581         150.592
0.509                  -0.178902        -126.566         -62.9553         24.3136         -62.9555         24.3181      -0.00722471         150.526
0.51                   -0.184011        -127.024         -62.8086         21.9068         -62.8088         21.9117      -0.00728456          150.46
0.511                   -0.18946        -127.485         -62.6581         19.4876         -62.6583         19.4928      -0.00734537         150.394
0.512                  -0.195251        -127.948         -62.5038         17.0566         -62.5041         17.0621      -0.00740715         150.328
0.513                  -0.201386        -128.413         -62.3459         14.6144         -62.3462         14.6202      -0.00746992         150.261
0.514                  -0.207867        -128.881         -62.1844         12.1615         -62.1847         12.1675      -0.00753369         150.195
0.515                  -0.214697        -129.351         -62.0194         9.69847         -62.0198         9.70469      -0.00759848         150.129
0.516                  -0.221879        -129.823         -61.8511         7.22574         -61.8514         7.23214       -0.0076643         150.062
0.517                  -0.229414        -130.298         -61.6794          4.7438         -61.6797         4.75035      -0.00773116         149.995
0.518                  -0.237305        -130.774         -61.5045         2.25307         -61.5049         2.25975      -0.00779907         149.929
0.519                  -0.245554        -131.253         -61.3266       -0.246053          -61.327       -0.239259      -0.00786806         149.862
0.52                   -0.254164        -131.735         -61.1457         -2.7532         -61.1461        -2.74633      -0.00793813         149.795
0.521                  -0.263137        -132.218         -60.9619        -5.26805         -60.9623        -5.26112      -0.00800929         149.728
0.522                  -0.272474        -132.704         -60.7755        -7.79032         -60.7759        -7.78335      -0.00808158         149.661
0.523                  -0.282179        -133.192         -60.5865        -10.3197         -60.5869        -10.3128      -0.00815499         149.594
0.524                  -0.292253        -133.683          -60.395        -12.8561         -60.3955        -12.8491      -0.00822954         149.527
0.525                  -0.302699        -134.175         -60.2013        -15.3992         -60.2018        -15.3923      -0.00830525         149.459
0.526                  -0.313519         -134.67         -60.0055        -17.9489         -60.0059         -17.942      -0.00838213         149.392
0.527                  -0.324715        -135.167         -59.8076         -20.505         -59.8081        -20.4982       -0.0084602         149.324
0.528                  -0.336289        -135.666          -59.608        -23.0675         -59.6084        -23.0608      -0.00853947         149.257
0.529                  -0.348243        -136.168         -59.4066        -25.6363          -59.407        -25.6297      -0.00861996         149.189
0.53                    -0.36058        -136.671         -59.2037        -28.2113         -59.2041        -28.2048      -0.00870168         149.121
0.531                  -0.373302        -137.177         -58.9995        -30.7925         -58.9999        -30.7861      -0.00878465         149.053
0.532                   -0.38641        -137.685          -58.794        -33.3798         -58.7944        -33.3737      -0.00886889         148.985
0.533                  -0.399906        -138.196         -58.5876        -35.9734          -58.588        -35.9674       -0.0089544         148.917
0.534                  -0.413794        -138.708         -58.3802        -38.5731         -58.3806        -38.5673      -0.00904122         148.849
0.535                  -0.428074        -139.223         -58.1721        -41.1791         -58.1724        -41.1735      -0.00912934         148.781
0.536                  -0.442749         -139.74         -57.9634        -43.7913         -57.9638        -43.7859       -0.0092188         148.712
0.537                   -0.45782        -140.259         -57.7543        -46.4098         -57.7547        -46.4045       -0.0093096         148.644
0.538                  -0.473291         -140.78          -57.545        -49.0345         -57.5453        -49.0295      -0.00940177         148.575
0.539                  -0.489162        -141.303         -57.3356        -51.6656         -57.3359        -51.6608      -0.00949532         148.507
0.54                   -0.505435        -141.829         -57.1262         -54.303         -57.1265        -54.2984      -0.00959026         148.438
0.541                  -0.522113        -142.356          -56.917        -56.9467         -56.9173        -56.9424      -0.00968661         148.369
0.542                  -0.539198        -142.886         -56.7082        -59.5968         -56.7084        -59.5928       -0.0097844           148.3
0.543                   -0.55669        -143.418         -56.4999        -62.2532         -56.5001        -62.2494      -0.00988363         148.231
0.544                  -0.574593        -143.952         -56.2922        -64.9159         -56.2924        -64.9124      -0.00998433         148.162
0.545                  -0.592908        -144.488         -56.0853        -67.5848         -56.0855        -67.5815       -0.0100865         148.092
0.546                  -0.611636        -145.026         -55.8793        -70.2599         -55.8795        -70.2569       -0.0101902         148.023
0.547                   -0.63078        -145.567         -55.6744         -72.941         -55.6746        -72.9382       -0.0102954         147.953
0.548                  -0.650342        -146.109         -55.4707         -75.628         -55.4708        -75.6255       -0.0104022         147.883
0.549                  -0.670322        -146.654         -55.2683        -78.3208         -55.2684        -78.3186       -0.0105104         147.814
0.55                   -0.690723          -147.2         -55.0673        -81.0192         -55.0673        -81.0173       -0.0106203         147.744
0.551                  -0.711548        -147.749         -54.8678         -83.723         -54.8678        -83.7214       -0.0107318         147.674
0.552                  -0.732796          -148.3         -54.6699         -86.432           -54.67        -86.4306       -0.0108449         147.604
0.553                  -0.754471        -148.853         -54.4738        -89.1459         -54.4739        -89.1448       -0.0109596         147.533
0.554                  -0.776574        -149.408         -54.2796        -91.8645         -54.2796        -91.8636       -0.0110759         147.463
0.555                  -0.799106        -149.965         -54.0872        -94.5874         -54.0872        -94.5868       -0.0111939         147.392
0.556                   -0.82207        -150.524         -53.8969        -97.3143         -53.8969        -97.3139       -0.0113137         147.322
0.557                  -0.845467        -151.085         -53.7086        -100.045         -53.7086        -100.045       -0.0114351         147.251
0.558                  -0.869299        -151.648         -53.5225        -102.779         -53.5225        -102.779       -0.0115582          147.18
0.559                  -0.893567        -152.213         -53.3386        -105.515         -53.3385        -105.516       -0.0116831         147.109
0.56                   -0.918274        -152.781         -53.1569        -108.255         -53.1568        -108.255       -0.0118098         147.038
0.561                  -0.943422         -153.35         -52.9775        -110.996         -52.9775        -110.997       -0.0119382         146.967
0.562                  -0.969011        -153.921         -52.8005        -113.739         -52.8004         -113.74       -0.0120685         146.895
0.563                  -0.995044        -154.495         -52.6258        -116.483         -52.6257        -116.484       -0.0122005         146.824
0.564                   -1.02152         -155.07         -52.4535        -119.228         -52.4534        -119.229       -0.0123345         146.752
0.565                   -1.04845        -155.648         -52.2836        -121.973         -52.2835        -121.975       -0.0124702          146.68
0.566                   -1.07583        -156.228          -52.116        -124.718         -52.1159         -124.72       -0.0126079         146.609
0.567                   -1.10365         -156.81         -51.9509        -127.463         -51.9508        -127.465       -0.0127475         146.536
0.568                   -1.13193        -157.394         -51.7881        -130.206          -51.788        -130.208        -0.012889         146.464
0.569                   -1.16067         -157.98         -51.6277        -132.948         -51.6276        -132.951       -0.0130325         146.392
0.57                    -1.18987        -158.568         -51.4696        -135.689         -51.4695        -135.691       -0.0131779          146.32
0.571                   -1.21952        -159.158         -51.3138        -138.426         -51.3137        -138.429       -0.0133253         146.247
0.572                   -1.24964         -159.75         -51.1603        -141.162         -51.1602        -141.164       -0.0134747         146.174
0.573                   -1.28022        -160.345          -51.009        -143.894         -51.0089        -143.896       -0.0136262         146.101
0.574                   -1.31126        -160.941         -50.8598        -146.623         -50.8597        -146.625       -0.0137797         146.028
0.575                   -1.34278         -161.54         -50.7128        -149.348         -50.7127        -149.351       -0.0139353         145.955
0.576                   -1.37477        -162.141         -50.5678        -152.069         -50.5677        -152.072       -0.0140929         145.882
0.577                   -1.40723        -162.744         -50.4248        -154.786         -50.4247        -154.789       -0.0142527         145.808
0.578                   -1.44018        -163.349         -50.2837        -157.499         -50.2836        -157.501       -0.0144146         145.735
0.579                    -1.4736        -163.957         -50.1444        -160.206         -50.1444        -160.209       -0.0145787         145.661
0.58                     -1.5075        -164.567         -50.0069        -162.909         -50.0069        -162.912        -0.014745         145.587
0.581                    -1.5419        -165.179         -49.8711        -165.607         -49.8711         -165.61       -0.0149134         145.513
0.582                   -1.57678        -165.793          -49.737          -168.3         -49.7369        -168.302       -0.0150841         145.439
0.583                   -1.61216         -166.41         -49.6043        -170.987         -49.6043         -170.99       -0.0152569         145.364
0.584                   -1.64804        -167.029         -49.4731        -173.669         -49.4731        -173.672       -0.0154321          145.29
0.585                   -1.68442         -167.65         -49.3433        -176.346         -49.3433        -176.348       -0.0156095         145.215
0.586                   -1.72131        -168.274         -49.2148        -179.017         -49.2148         -179.02       -0.0157892          145.14
0.587                   -1.75871          -168.9         -49.0875         178.317         -49.0875         178.314       -0.0159713         145.065
0.588                   -1.79662        -169.529         -48.9613         175.656         -48.9613         175.654       -0.0161556          144.99
0.589                   -1.83506         -170.16         -48.8361         173.001         -48.8361         172.998       -0.0163423         144.915
0.59                    -1.87403        -170.794         -48.7119          170.35          -48.712         170.348       -0.0165314         144.839
0.591                   -1.91353         -171.43         -48.5887         167.705         -48.5887         167.703       -0.0167228         144.763
0.592                   -1.95357        -172.069         -48.4662         165.064         -48.4662         165.062       -0.0169167         144.687
0.593                   -1.99416        -172.711         -48.3445         162.428         -48.3445         162.426       -0.0171129         144.611
0.594                    -2.0353        -173.355         -48.2234         159.797         -48.2234         159.795       -0.0173116         144.535
0.595                   -2.07701        -174.002          -48.103          157.17          -48.103         157.168       -0.0175128         144.459
0.596                   -2.11928        -174.653          -47.983         154.547         -47.9831         154.545       -0.0177164         144.382
0.597                   -2.16214        -175.305         -47.8636         151.928         -47.8636         151.926       -0.0179224         144.305
0.598                   -2.20559        -175.961         -47.7446         149.312         -47.7446         149.311        -0.018131         144.228
0.599                   -2.24963         -176.62         -47.6259           146.7         -47.6259         146.699        -0.018342         144.151
0.6                     -2.29429        -177.282         -47.5075         144.091         -47.5075          144.09       -0.0185556         144.074
0.601                   -2.33957        -177.947         -47.3894         141.485         -47.3894         141.484       -0.0187716         143.996
0.602                   -2.38549        -178.616         -47.2714         138.881         -47.2715          138.88       -0.0189902         143.918
0.603                   -2.43205        -179.287         -47.1537         136.279         -47.1537         136.278       -0.0192114          143.84
0.604                   -2.47927        -179.962          -47.036         133.679         -47.0361         133.678       -0.0194351         143.762
0.605                   -2.52718         179.359         -46.9185         131.081         -46.9185          131.08       -0.0196613         143.684
0.606                   -2.57578         178.678          -46.801         128.484          -46.801         128.484       -0.0198901         143.605
0.607                   -2.62509         177.992         -46.6835         125.888         -46.6835         125.888       -0.0201215         143.527
0.608                   -2.67513         177.303         -46.5659         123.293          -46.566         123.293       -0.0203555         143.448
0.609                   -2.72592          176.61         -46.4484         120.698         -46.4484         120.698       -0.0205921         143.368
0.61                    -2.77748         175.913         -46.3308         118.103         -46.3308         118.103       -0.0208313         143.289
0.611                   -2.82984         175.213         -46.2131         115.509         -46.2132         115.508       -0.0210732         143.209
0.612                   -2.88302         174.508         -46.0954         112.913         -46.0954         112.913       -0.0213178          143.13
0.613                   -2.93705           173.8         -45.9776         110.317         -45.9776         110.317       -0.0215651         143.049
0.614                   -2.99195         173.087         -45.8596          107.72         -45.8596          107.72       -0.0218151         142.969
0.615                   -3.04776          172.37         -45.7416         105.121         -45.7416         105.121       -0.0220681         142.889
0.616                    -3.1045         171.648         -45.6235         102.521         -45.6235         102.521       -0.0223239         142.808
0.617                   -3.16221         170.922         -45.5052         99.9188         -45.5052         99.9191       -0.0225827         142.727
0.618                   -3.22093         170.192         -45.3869         97.3147         -45.3869         97.3151       -0.0228447         142.645
0.619                   -3.28069         169.457         -45.2685         94.7083         -45.2685         94.7087       -0.0231099         142.564
0.62                    -3.34154         168.717           -45.15         92.0995           -45.15         92.0999       -0.0233786         142.482
0.621                   -3.40353         167.973         -45.0315         89.4879         -45.0315         89.4884        -0.023651           142.4
0.622                   -3.46669         167.224         -44.9129         86.8734         -44.9129         86.8739       -0.0239273         142.318
0.623                   -3.53108          166.47         -44.7943         84.2559         -44.7943         84.2564       -0.0242079         142.235
0.624                   -3.59675         165.711         -44.6757         81.6351         -44.6757         81.6357       -0.0244931         142.152
0.625                   -3.66376         164.947         -44.5571          79.011         -44.5571         79.0116       -0.0247833         142.069
0.626                   -3.73216         164.178         -44.4386         76.3834         -44.4386          76.384       -0.0250791         141.986
0.627                   -3.80202         163.404         -44.3201         73.7523         -44.3201         73.7529       -0.0253808         141.902
0.628                    -3.8734         162.626         -44.2018         71.1175         -44.2017         71.1181       -0.0256892         141.818
0.629                   -3.94638         161.842         -44.0836          68.479         -44.0835         68.4796       -0.0260048         141.734
0.63                    -4.02103         161.054         -43.9655         65.8367         -43.9654         65.8373       -0.0263281         141.649
0.631                   -4.09742         160.261         -43.8476         63.1906         -43.8476         63.1912       -0.0266599         141.564
0.632                   -4.17564         159.463           -43.73         60.5406         -43.7299         60.5412       -0.0270008         141.479
0.633                   -4.25576          158.66         -43.6126         57.8869         -43.6125         57.8875       -0.0273511         141.394
0.634                   -4.33789         157.853         -43.4955         55.2294         -43.4954           55.23       -0.0277113         141.308
0.635                   -4.42209         157.042         -43.3787         52.5682         -43.3787         52.5687       -0.0280818         141.222
0.636                   -4.50848         156.228         -43.2623         49.9033         -43.2623         49.9038       -0.0284627         141.136
0.637                   -4.59714         155.409         -43.1463         47.2348         -43.1463         47.2353        -0.028854         141.049
0.638                   -4.68818         154.588         -43.0308         44.5628         -43.0307         44.5633       -0.0292554         140.962
0.639                   -4.78169         153.763         -42.9156         41.8875         -42.9156          41.888       -0.0296667         140.875
0.64                    -4.87778         152.936          -42.801          39.209          -42.801         39.2095       -0.0300875         140.787
0.641                   -4.97655         152.108         -42.6869         36.5274         -42.6869         36.5279       -0.0305172           140.7
0.642                    -5.0781         151.278         -42.5734          33.843         -42.5734         33.8434       -0.0309552         140.611
0.643                   -5.18252         150.448         -42.4605         31.1558         -42.4604         31.1562       -0.0314008         140.523
0.644                   -5.28992         149.619         -42.3481         28.4662         -42.3481         28.4665       -0.0318535         140.434
0.645                   -5.40039          148.79         -42.2364         25.7743         -42.2364         25.7746       -0.0323126         140.345
0.646                   -5.51401         147.964         -42.1254         23.0803         -42.1254         23.0806       -0.0327777         140.256
0.647                   -5.63088          147.14          -42.015         20.3845          -42.015         20.3848       -0.0332483         140.167
0.648                   -5.75105         146.321         -41.9054         17.6872         -41.9053         17.6874       -0.0337241         140.077
0.649                    -5.8746         145.508         -41.7964         14.9886         -41.7964         14.9888       -0.0342047         139.986
0.65                    -6.00157         144.701         -41.6882         12.2889         -41.6882         12.2891       -0.0346901         139.896
0.651                     -6.132         143.902         -41.5808         9.58854         -41.5807         9.58871       -0.0351802         139.805
0.652                   -6.26591         143.113          -41.474         6.88767          -41.474         6.88782        -0.035675         139.713
0.653                    -6.4033         142.335         -41.3681         4.18661          -41.368         4.18675       -0.0361744         139.622
0.654                   -6.54416         141.569         -41.2628         1.48564         -41.2628         1.48576       -0.0366787          139.53
0.655                   -6.68843         140.817         -41.1584        -1.21495         -41.1584        -1.21484        -0.037188         139.437
0.656                   -6.83607         140.081         -41.0547        -3.91489         -41.0547        -3.91479       -0.0377025         139.344
0.657                   -6.98698         139.362         -40.9517        -6.61389         -40.9517         -6.6138       -0.0382223         139.251
0.658                   -7.14105         138.662         -40.8495        -9.31169         -40.8495         -9.3116       -0.0387479         139.157
0.659                   -7.29815         137.983          -40.748         -12.008         -40.7481        -12.0079       -0.0392794         139.063
0.66                     -7.4581         137.325         -40.6473        -14.7026         -40.6473        -14.7025       -0.0398171         138.969
0.661                   -7.62072         136.691         -40.5472        -17.3952         -40.5472        -17.3951       -0.0403613         138.874
0.662                    -7.7858          136.08         -40.4478        -20.0855         -40.4478        -20.0854       -0.0409124         138.779
0.663                    -7.9531         135.496         -40.3491        -22.7734         -40.3491        -22.7733       -0.0414706         138.683
0.664                   -8.12236         134.938          -40.251        -25.4586          -40.251        -25.4585       -0.0420363         138.587
0.665                   -8.29331         134.408         -40.1535        -28.1409         -40.1535        -28.1408       -0.0426098          138.49
0.666                   -8.46567         133.906         -40.0566        -30.8201         -40.0566          -30.82       -0.0431915         138.393
0.667                   -8.63913         133.432         -39.9603        -33.4961         -39.9603        -33.4959       -0.0437817         138.295
0.668                    -8.8134         132.987         -39.8644        -36.1686         -39.8645        -36.1685       -0.0443808         138.197
0.669                   -8.98817          132.57         -39.7691        -38.8376         -39.7691        -38.8374       -0.0449891         138.098
0.67                    -9.16315         132.182         -39.6742        -41.5029         -39.6742        -41.5027        -0.045607         137.999
0.671                   -9.33803         131.821         -39.5797        -44.1643         -39.5798        -44.1641        -0.046235           137.9
0.672                   -9.51255         131.488         -39.4857        -46.8219         -39.4857        -46.8217       -0.0468734         137.799
0.673                   -9.68645         131.182         -39.3919        -49.4755         -39.3919        -49.4752       -0.0475226         137.699
0.674                   -9.85948           130.9         -39.2985         -52.125         -39.2985        -52.1248       -0.0481832         137.598
0.675                   -10.0314         130.642         -39.2053        -54.7705         -39.2053        -54.7703       -0.0488555         137.496
0.676                   -10.2021         130.407         -39.1124         -57.412         -39.1124        -57.4116       -0.0495401         137.393
0.677                   -10.3714         130.194         -39.0196        -60.0493         -39.0197        -60.0489       -0.0502374         137.291
0.678                   -10.5392             130         -38.9271        -62.6825         -38.9271        -62.6822       -0.0509479         137.187
0.679                   -10.7053         129.824         -38.8346        -65.3117         -38.8346        -65.3114       -0.0516723         137.083
0.68                    -10.8698         129.664         -38.7422        -67.9369         -38.7422        -67.9366        -0.052411         136.978
0.681                   -11.0325          129.52         -38.6499        -70.5582         -38.6499        -70.5578       -0.0531647         136.873
0.682                   -11.1936         129.389         -38.5575        -73.1757         -38.5575        -73.1753       -0.0539339         136.767
0.683                    -11.353          129.27         -38.4652        -75.7894         -38.4651         -75.789       -0.0547194         136.661
0.684                   -11.5109         129.161         -38.3727        -78.3995         -38.3727        -78.3991       -0.0555217         136.554
0.685                   -11.6672         129.062         -38.2802        -81.0061         -38.2802        -81.0056       -0.0563417         136.446
0.686                   -11.8222         128.971         -38.1876        -83.6093         -38.1875        -83.6089         -0.05718         136.337
0.687                   -11.9759         128.888         -38.0948        -86.2094         -38.0947        -86.2089       -0.0580374         136.228
0.688                   -12.1286         128.811         -38.0018        -88.8064         -38.0017        -88.8059       -0.0589147         136.119
0.689                   -12.2802          128.74         -37.9086        -91.4005         -37.9085           -91.4       -0.0598127         136.008
0.69                    -12.4312         128.675         -37.8152         -93.992         -37.8151        -93.9915       -0.0607323         135.897
0.691                   -12.5815         128.614         -37.7215         -96.581         -37.7214        -96.5805       -0.0616744         135.785
0.692                   -12.7314         128.559         -37.6275        -99.1677         -37.6275        -99.1673       -0.0626399         135.672
0.693                   -12.8811         128.508         -37.5332        -101.752         -37.5332        -101.752       -0.0636298         135.559
0.694                   -13.0308         128.463         -37.4387        -104.335         -37.4386        -104.335        -0.064645         135.445
0.695                   -13.1806         128.424         -37.3437        -106.917         -37.3437        -106.916       -0.0656866          135.33
0.696                   -13.3308         128.391         -37.2485        -109.496         -37.2484        -109.496       -0.0667556         135.214
0.697                   -13.4814         128.365         -37.1529        -112.075         -37.1528        -112.075        -0.067853         135.098