! TOUCHSTONE file generated by CST MICROWAVE STUDIO
! Date and time: Fri Oct  2 16:59:15 2020
! Project name: Scenario_1_Free_Space_out_of_line.cst
! Parameters = {Lambda=346.42; Step_1=17.321; dy1=-172.59; dx1=693; L_HA=400; MT=2.54; Rad_Dielectric=30; Rad_Lower=7.3; Rad_Upper=30; a_HA=580; a_WG=246; b_HA=500; b_WG=121; c_HA=0; c_WG=187; d_feed=85; h_feed=15; h_lower=18; h_upper=40}
! Header version: 2018
! Port assignment regex: !\s*Touchstone port\s*([0-9]+)\s*=\s*(CST MWS port|CST DS port)\s*([0-9]+|Zmin|Zmax)\s*\(\"(.*)\"\)(\s*mode\s*([0-9]+))?.*
! Touchstone port assignment:
! Touchstone port 1 = CST MWS port 1 ("")
! Touchstone port 2 = CST MWS port 2 ("")
# GHz S DB R 50
0.5                    -0.146738        -122.555         -62.9804         -119.82         -62.9804         -119.82      -0.00667671         151.124
0.501                  -0.154104        -122.993          -62.824        -121.766         -62.8267        -121.761      -0.00674001         151.059
0.502                  -0.161596        -123.432         -62.6652        -123.719         -62.6706        -123.708      -0.00680401         150.993
0.503                  -0.169218        -123.873         -62.5043        -125.678         -62.5121        -125.662      -0.00686869         150.928
0.504                  -0.176971        -124.316         -62.3411        -127.643         -62.3514        -127.623      -0.00693408         150.862
0.505                  -0.184857         -124.76         -62.1758        -129.615         -62.1884         -129.59      -0.00700017         150.797
0.506                  -0.192879        -125.207         -62.0084        -131.592         -62.0233        -131.564      -0.00706697         150.731
0.507                  -0.201039        -125.655         -61.8389        -133.576          -61.856        -133.544      -0.00713449         150.665
0.508                  -0.209339        -126.105         -61.6676        -135.565         -61.6867         -135.53      -0.00720273           150.6
0.509                  -0.217781        -126.557         -61.4943         -137.56         -61.5153        -137.521      -0.00727171         150.534
0.51                   -0.226369        -127.011         -61.3193        -139.561         -61.3421        -139.519      -0.00734141         150.468
0.511                  -0.235105        -127.466         -61.1425        -141.567          -61.167        -141.522      -0.00741186         150.402
0.512                  -0.243991        -127.924          -60.964        -143.579         -60.9902        -143.531      -0.00748306         150.335
0.513                   -0.25303        -128.383          -60.784        -145.596         -60.8116        -145.545      -0.00755501         150.269
0.514                  -0.262225        -128.845         -60.6024        -147.619         -60.6314        -147.565      -0.00762771         150.203
0.515                  -0.271579        -129.308         -60.4194        -149.646         -60.4497        -149.591      -0.00770119         150.137
0.516                  -0.281095        -129.774         -60.2351        -151.679         -60.2665        -151.622      -0.00777544          150.07
0.517                  -0.290775        -130.241         -60.0495        -153.718         -60.0819        -153.658      -0.00785046         150.004
0.518                  -0.300624         -130.71         -59.8626        -155.762         -59.8961        -155.699      -0.00792627         149.937
0.519                  -0.310644        -131.182         -59.6747        -157.811          -59.709        -157.746      -0.00800287          149.87
0.52                   -0.320838        -131.656         -59.4858        -159.865         -59.5207        -159.799      -0.00808027         149.803
0.521                   -0.33121        -132.131         -59.2959        -161.925         -59.3314        -161.857      -0.00815848         149.736
0.522                  -0.341763        -132.609         -59.1051         -163.99         -59.1412         -163.92      -0.00823749         149.669
0.523                  -0.352502        -133.089         -58.9136         -166.06         -58.9501        -165.989      -0.00831732         149.602
0.524                  -0.363429        -133.571         -58.7214        -168.136         -58.7581        -168.063      -0.00839797         149.535
0.525                  -0.374549        -134.056         -58.5286        -170.217         -58.5655        -170.143      -0.00847946         149.468
0.526                  -0.385865        -134.542         -58.3352        -172.304         -58.3723        -172.228      -0.00856177         149.401
0.527                  -0.397382        -135.031         -58.1415        -174.396         -58.1785        -174.319      -0.00864493         149.333
0.528                  -0.409103        -135.522         -57.9474        -176.494         -57.9843        -176.416      -0.00872894         149.266
0.529                  -0.421033        -136.016          -57.753        -178.598         -57.7897        -178.518      -0.00881381         149.198
0.53                   -0.433177        -136.511         -57.5585         179.293         -57.5949         179.374      -0.00889953          149.13
0.531                  -0.445538        -137.009         -57.3638         177.179         -57.3999          177.26      -0.00898612         149.062
0.532                  -0.458122         -137.51         -57.1692         175.058         -57.2048          175.14      -0.00907358         148.995
0.533                  -0.470934        -138.012         -56.9746         172.933         -57.0096         173.015      -0.00916192         148.927
0.534                  -0.483977        -138.518         -56.7802         170.801         -56.8146         170.884      -0.00925114         148.858
0.535                  -0.497258        -139.025         -56.5861         168.664         -56.6197         168.748      -0.00934126          148.79
0.536                  -0.510782        -139.535         -56.3922         166.522         -56.4251         166.605      -0.00943226         148.722
0.537                  -0.524553        -140.048         -56.1988         164.373         -56.2308         164.457      -0.00952417         148.654
0.538                  -0.538577        -140.563         -56.0058          162.22         -56.0369         162.303      -0.00961698         148.585
0.539                  -0.552861        -141.081         -55.8134         160.061         -55.8436         160.144       -0.0097107         148.516
0.54                    -0.56741        -141.601         -55.6215         157.897         -55.6507         157.979      -0.00980534         148.448
0.541                  -0.582229        -142.124         -55.4304         155.727         -55.4586         155.809      -0.00990089         148.379
0.542                  -0.597326        -142.649         -55.2401         153.552         -55.2671         153.633      -0.00999736          148.31
0.543                  -0.612706        -143.177         -55.0506         151.372         -55.0764         151.452       -0.0100948         148.241
0.544                  -0.628375        -143.708         -54.8619         149.188         -54.8866         149.266       -0.0101931         148.172
0.545                  -0.644342        -144.241         -54.6743         146.998         -54.6977         147.075       -0.0102923         148.103
0.546                  -0.660612        -144.777         -54.4876         144.804         -54.5098         144.879       -0.0103925         148.033
0.547                  -0.677193        -145.316          -54.302         142.606          -54.323         142.679       -0.0104937         147.964
0.548                  -0.694091        -145.857         -54.1176         140.403         -54.1373         140.473       -0.0105957         147.894
0.549                  -0.711315        -146.402         -53.9343         138.196         -53.9527         138.264       -0.0106987         147.824
0.55                   -0.728873        -146.949         -53.7523         135.985         -53.7694         136.051       -0.0108026         147.755
0.551                  -0.746771        -147.499         -53.5715         133.771         -53.5873         133.833       -0.0109075         147.685
0.552                  -0.765018        -148.052         -53.3921         131.553         -53.4066         131.612       -0.0110133         147.615
0.553                  -0.783623        -148.607          -53.214         129.332         -53.2272         129.387         -0.01112         147.544
0.554                  -0.802595        -149.166         -53.0372         127.108         -53.0492          127.16       -0.0112276         147.474
0.555                  -0.821941        -149.727         -52.8619         124.881         -52.8726         124.929       -0.0113362         147.404
0.556                  -0.841671        -150.292         -52.6881         122.652         -52.6975         122.696       -0.0114457         147.333
0.557                  -0.861794        -150.859         -52.5157         120.421         -52.5239          120.46        -0.011556         147.263
0.558                  -0.882321        -151.429         -52.3448         118.188         -52.3518         118.223       -0.0116673         147.192
0.559                   -0.90326        -152.003         -52.1754         115.953         -52.1813         115.983       -0.0117794         147.121
0.56                   -0.924621        -152.579         -52.0074         113.717         -52.0123         113.742       -0.0118925          147.05
0.561                  -0.946416        -153.158         -51.8411         111.479         -51.8448           111.5       -0.0120063         146.979
0.562                  -0.968655        -153.741         -51.6762         109.241         -51.6789         109.257        -0.012121         146.908
0.563                  -0.991348        -154.326         -51.5128         107.003         -51.5146         107.013       -0.0122366         146.836
0.564                   -1.01451        -154.915          -51.351         104.764         -51.3518         104.769       -0.0123529         146.765
0.565                   -1.03814        -155.506         -51.1907         102.525         -51.1907         102.525       -0.0124701         146.693
0.566                   -1.06227        -156.101         -51.0318         100.286          -51.031         100.281        -0.012588         146.621
0.567                   -1.08689        -156.699         -50.8745         98.0479         -50.8729         98.0373       -0.0127067         146.549
0.568                   -1.11203          -157.3         -50.7186         95.8104         -50.7163         95.7945       -0.0128261         146.477
0.569                   -1.13769        -157.904         -50.5641         93.5738         -50.5612         93.5527       -0.0129463         146.405
0.57                    -1.16389        -158.511         -50.4111         91.3383         -50.4076          91.312       -0.0130671         146.332
0.571                   -1.19064        -159.121         -50.2595         89.1042         -50.2555         89.0728       -0.0131887          146.26
0.572                   -1.21796        -159.734         -50.1093         86.8716         -50.1048         86.8353       -0.0133109         146.187
0.573                   -1.24586        -160.351         -49.9603         84.6407         -49.9555         84.5996       -0.0134339         146.114
0.574                   -1.27434        -160.971         -49.8127         82.4118         -49.8075         82.3659       -0.0135576         146.041
0.575                   -1.30344        -161.593         -49.6664         80.1848         -49.6609         80.1344       -0.0136821         145.968
0.576                   -1.33315        -162.219         -49.5213           77.96         -49.5156         77.9053       -0.0138074         145.895
0.577                    -1.3635        -162.848         -49.3774         75.7375         -49.3715         75.6787       -0.0139337         145.821
0.578                    -1.3945         -163.48         -49.2347         73.5174         -49.2286         73.4547        -0.014061         145.748
0.579                   -1.42616        -164.116         -49.0931         71.2998         -49.0869         71.2334       -0.0141897         145.674
0.58                    -1.45851        -164.754         -48.9525         69.0847         -48.9464         69.0149         -0.01432           145.6
0.581                   -1.49155        -165.395          -48.813         66.8722         -48.8069         66.7993       -0.0144521         145.526
0.582                    -1.5253        -166.039         -48.6745         64.6623         -48.6685         64.5866       -0.0145866         145.452
0.583                   -1.55978        -166.687          -48.537         62.4551          -48.531         62.3769       -0.0147241         145.377
0.584                   -1.59501        -167.337         -48.4003         60.2506         -48.3945         60.1701       -0.0148651         145.302
0.585                     -1.631         -167.99         -48.2645         58.0487         -48.2589         57.9663       -0.0150106         145.227
0.586                   -1.66776        -168.646         -48.1296         55.8494         -48.1242         55.7655       -0.0151615         145.152
0.587                   -1.70532        -169.305         -47.9954         53.6528         -47.9903         53.5676       -0.0153187         145.077
0.588                   -1.74369        -169.967          -47.862         51.4587         -47.8571         51.3726       -0.0154833         145.001
0.589                   -1.78288        -170.631         -47.7293         49.2671         -47.7247         49.1804       -0.0156566         144.926
0.59                    -1.82292        -171.298         -47.5973         47.0779          -47.593         46.9909       -0.0158394          144.85
0.591                   -1.86382        -171.968         -47.4659          44.891         -47.4619         44.8041       -0.0160325         144.774
0.592                    -1.9056         -172.64         -47.3351         42.7064         -47.3314         42.6199       -0.0162365         144.698
0.593                   -1.94827        -173.315         -47.2049         40.5239         -47.2015         40.4381       -0.0164514         144.621
0.594                   -1.99185        -173.992         -47.0751         38.3434         -47.0721         38.2586       -0.0166768         144.545
0.595                   -2.03635        -174.671         -46.9459         36.1647         -46.9432         36.0814       -0.0169121         144.468
0.596                    -2.0818        -175.353         -46.8171         33.9879         -46.8148         33.9061        -0.017156         144.391
0.597                    -2.1282        -176.036         -46.6888         31.8127         -46.6868         31.7328       -0.0174069         144.314
0.598                   -2.17558        -176.722         -46.5609         29.6389         -46.5592         29.5612       -0.0176633         144.237
0.599                   -2.22394         -177.41         -46.4333         27.4665         -46.4319         27.3912       -0.0179235          144.16
0.6                      -2.2733          -178.1         -46.3062         25.2952         -46.3051         25.2227        -0.018186         144.082
0.601                   -2.32368        -178.791         -46.1793         23.1249         -46.1785         23.0553       -0.0184496         144.005
0.602                   -2.37508        -179.484         -46.0528         20.9556         -46.0522         20.8891       -0.0187132         143.927
0.603                   -2.42753         179.822         -45.9265         18.7869         -45.9262         18.7237       -0.0189762         143.849
0.604                   -2.48102         179.126         -45.8005         16.6187         -45.8005         16.5591       -0.0192381         143.771
0.605                   -2.53558         178.429         -45.6748          14.451          -45.675          14.395       -0.0194987         143.693
0.606                   -2.59121         177.731         -45.5494         12.2834         -45.5497         12.2312       -0.0197581         143.614
0.607                   -2.64792         177.032         -45.4241         10.1159         -45.4246         10.0676       -0.0200164         143.536
0.608                   -2.70571         176.332         -45.2991         7.94836         -45.2997         7.90407       -0.0202739         143.457
0.609                    -2.7646         175.632         -45.1744         5.78055          -45.175         5.74034       -0.0205308         143.378
0.61                    -2.82459         174.931         -45.0498         3.61235         -45.0505         3.57627       -0.0207875         143.299
0.611                   -2.88568          174.23         -44.9254         1.44363         -44.9262         1.41171       -0.0210445         143.219
0.612                   -2.94787         173.528         -44.8013       -0.725764         -44.8021       -0.753512        -0.021302          143.14
0.613                   -3.01117         172.827         -44.6773        -2.89595         -44.6781        -2.91954       -0.0215605          143.06
0.614                   -3.07558         172.125         -44.5536        -5.06707         -44.5543        -5.08653       -0.0218203          142.98
0.615                   -3.14109         171.424           -44.43        -7.23922         -44.4306         -7.2546       -0.0220817         142.899
0.616                   -3.20769         170.723         -44.3067        -9.41252         -44.3072         -9.4239       -0.0223451         142.818
0.617                    -3.2754         170.022         -44.1835        -11.5871         -44.1839        -11.5946       -0.0226107         142.738
0.618                   -3.34419         169.323         -44.0606         -13.763         -44.0608        -13.7667       -0.0228788         142.656
0.619                   -3.41406         168.624         -43.9379        -15.9403         -43.9379        -15.9403       -0.0231497         142.575
0.62                      -3.485         167.925         -43.8154        -18.1192         -43.8152        -18.1156       -0.0234236         142.493
0.621                     -3.557         167.228         -43.6931        -20.2996         -43.6927        -20.2927       -0.0237008         142.412
0.622                   -3.63004         166.532         -43.5711        -22.4817         -43.5704        -22.4716       -0.0239813         142.329
0.623                   -3.70412         165.838         -43.4493        -24.6654         -43.4483        -24.6523       -0.0242656         142.247
0.624                   -3.77922         165.144         -43.3278        -26.8509         -43.3265         -26.835       -0.0245537         142.164
0.625                   -3.85532         164.452         -43.2065        -29.0381         -43.2049        -29.0197       -0.0248458         142.081
0.626                    -3.9324         163.761         -43.0854        -31.2271         -43.0835        -31.2063       -0.0251422         141.998
0.627                   -4.01046         163.072         -42.9647        -33.4179         -42.9625         -33.395       -0.0254429         141.915
0.628                   -4.08946         162.384         -42.8442        -35.6105         -42.8416        -35.5857       -0.0257483         141.831
0.629                   -4.16939         161.697          -42.724        -37.8049         -42.7211        -37.7784       -0.0260584         141.747
0.63                    -4.25024         161.012         -42.6041        -40.0011         -42.6009        -39.9732       -0.0263734         141.663
0.631                   -4.33199         160.329         -42.4845         -42.199          -42.481          -42.17       -0.0266936         141.578
0.632                   -4.41462         159.646         -42.3653        -44.3987         -42.3614        -44.3687        -0.027019         141.493
0.633                   -4.49811         158.965         -42.2463           -46.6         -42.2421        -46.5694       -0.0273498         141.408
0.634                   -4.58246         158.285         -42.1276        -48.8031         -42.1231         -48.772       -0.0276863         141.322
0.635                   -4.66764         157.606         -42.0093        -51.0077         -42.0045        -50.9764       -0.0280286         141.237
0.636                   -4.75366         156.928         -41.8913        -53.2139         -41.8862        -53.1826       -0.0283769          141.15
0.637                   -4.84049          156.25         -41.7736        -55.4216         -41.7682        -55.3905       -0.0287314         141.064
0.638                   -4.92815         155.573         -41.6563        -57.6307         -41.6506        -57.6001       -0.0290923         140.977
0.639                   -5.01663         154.896         -41.5393        -59.8413         -41.5334        -59.8113       -0.0294597          140.89
0.64                    -5.10592          154.22         -41.4226        -62.0532         -41.4165         -62.024       -0.0298339         140.803
0.641                   -5.19605         153.543         -41.3063        -64.2663            -41.3        -64.2381       -0.0302151         140.715
0.642                   -5.28702         152.866         -41.1903        -66.4806         -41.1838        -66.4536       -0.0306034         140.627
0.643                   -5.37884         152.188         -41.0746        -68.6961          -41.068        -68.6703       -0.0309991         140.539
0.644                   -5.47155         151.509         -40.9592        -70.9127         -40.9525        -70.8882       -0.0314025          140.45
0.645                   -5.56517         150.829         -40.8442        -73.1302         -40.8374        -73.1072       -0.0318137         140.361
0.646                   -5.65974         150.147         -40.7294        -75.3487         -40.7226        -75.3273        -0.032233         140.271
0.647                   -5.75528         149.463          -40.615        -77.5682         -40.6082        -77.5484       -0.0326606         140.181
0.648                   -5.85186         148.778         -40.5009        -79.7884         -40.4941        -79.7703       -0.0330968         140.091
0.649                   -5.94953          148.09          -40.387        -82.0095         -40.3803        -81.9931       -0.0335419         140.001
0.65                    -6.04834         147.399         -40.2735        -84.2314         -40.2668        -84.2167        -0.033996          139.91
0.651                   -6.14836         146.706         -40.1602         -86.454         -40.1536         -86.441       -0.0344594         139.819
0.652                   -6.24966          146.01         -40.0472        -88.6773         -40.0407         -88.666       -0.0349325         139.727
0.653                   -6.35233          145.31         -39.9344        -90.9012         -39.9281        -90.8917       -0.0354155         139.635
0.654                   -6.45644         144.607         -39.8218        -93.1259         -39.8157         -93.118       -0.0359088         139.543
0.655                   -6.56211         143.901         -39.7095        -95.3513         -39.7036        -95.3449       -0.0364125          139.45
0.656                   -6.66941         143.191         -39.5975        -97.5773         -39.5917        -97.5724        -0.036927         139.357
0.657                   -6.77846         142.477         -39.4856         -99.804         -39.4801        -99.8005       -0.0374526         139.263
0.658                   -6.88937         141.759         -39.3739        -102.031         -39.3687        -102.029       -0.0379896         139.169
0.659                   -7.00226         141.038         -39.2624         -104.26         -39.2575        -104.259       -0.0385383         139.074
0.66                    -7.11724         140.312         -39.1511        -106.489         -39.1464        -106.489       -0.0390991          138.98
0.661                   -7.23446         139.584           -39.04        -108.718         -39.0356        -108.719       -0.0396724         138.884
0.662                   -7.35404         138.852         -38.9291        -110.949          -38.925        -110.951       -0.0402583         138.789
0.663                   -7.47612         138.116         -38.8183        -113.181         -38.8145        -113.183       -0.0408573         138.692
0.664                   -7.60084         137.378         -38.7076        -115.413         -38.7041        -115.416       -0.0414696         138.596
0.665                   -7.72835         136.638         -38.5972        -117.647          -38.594         -117.65       -0.0420958         138.499
0.666                    -7.8588         135.895         -38.4868        -119.882         -38.4839        -119.885        -0.042736         138.401
0.667                   -7.99235         135.151         -38.3766        -122.118         -38.3741        -122.122       -0.0433906         138.303
0.668                   -8.12915         134.405         -38.2666        -124.355         -38.2643        -124.359         -0.04406         138.205
0.669                   -8.26937          133.66         -38.1567        -126.594         -38.1547        -126.598       -0.0447445         138.106
0.67                    -8.41316         132.914          -38.047        -128.834         -38.0453        -128.838       -0.0454445         138.007
0.671                    -8.5607          132.17         -37.9374        -131.075          -37.936        -131.079       -0.0461602         137.907
0.672                   -8.71214         131.428          -37.828        -133.319         -37.8268        -133.322        -0.046892         137.806
0.673                   -8.86767         130.689         -37.7188        -135.564         -37.7178        -135.567       -0.0476403         137.706
0.674                   -9.02745         129.955         -37.6097        -137.811          -37.609        -137.813       -0.0484053         137.604
0.675                   -9.19165         129.226         -37.5009         -140.06         -37.5004        -140.062       -0.0491874         137.502
0.676                   -9.36044         128.503         -37.3922        -142.311         -37.3919        -142.312       -0.0499869           137.4
0.677                   -9.53399         127.789         -37.2838        -144.564         -37.2837        -144.564        -0.050804         137.297
0.678                   -9.71247         127.085         -37.1757        -146.819         -37.1757        -146.819        -0.051639         137.194
0.679                   -9.89605         126.393         -37.0678        -149.076         -37.0679        -149.075       -0.0524922          137.09
0.68                    -10.0849         125.714         -36.9601        -151.335         -36.9604        -151.334       -0.0533639         136.985
0.681                   -10.2792          125.05         -36.8528        -153.597         -36.8532        -153.595       -0.0542542          136.88
0.682                    -10.479         124.405         -36.7458        -155.861         -36.7463        -155.858       -0.0551634         136.775
0.683                   -10.6846         123.779         -36.6392        -158.127         -36.6397        -158.124       -0.0560916         136.668
0.684                    -10.896         123.177         -36.5329        -160.396         -36.5335        -160.392       -0.0570392         136.562
0.685                   -11.1135           122.6         -36.4271        -162.667         -36.4277        -162.662       -0.0580062         136.454
0.686                    -11.337         122.052         -36.3216         -164.94         -36.3223        -164.935       -0.0589929         136.346
0.687                   -11.5668         121.536         -36.2167        -167.215         -36.2173         -167.21       -0.0599992         136.238
0.688                   -11.8028         121.056         -36.1122        -169.493         -36.1128        -169.487       -0.0610255         136.129
0.689                   -12.0452         120.615         -36.0082        -171.772         -36.0088        -171.766       -0.0620717         136.019
0.69                    -12.2939         120.218         -35.9048        -174.054         -35.9054        -174.047       -0.0631381         135.909
0.691                   -12.5489          119.87         -35.8019        -176.337         -35.8025         -176.33       -0.0642246         135.798
0.692                   -12.8103         119.574         -35.6996        -178.622         -35.7002        -178.615       -0.0653315         135.686
0.693                   -13.0777         119.337          -35.598         179.091         -35.5985         179.098       -0.0664586         135.574
0.694                   -13.3512         119.164          -35.497         176.803         -35.4974          176.81       -0.0676063         135.461
0.695                   -13.6303          119.06         -35.3966         174.513          -35.397          174.52       -0.0687744         135.347
0.696                   -13.9148         119.033         -35.2969         172.223         -35.2973          172.23       -0.0699631         135.233
0.697                   -14.2041         119.089         -35.1979         169.931         -35.1982         169.938       -0.0711726         135.118