! TOUCHSTONE file generated by CST MICROWAVE STUDIO
! Date and time: Fri Oct  2 18:59:21 2020
! Project name: Scenario_1_Free_Space_out_of_line.cst
! Parameters = {Lambda=346.42; Step_1=17.321; dy1=-189.931; dx1=1039; L_HA=400; MT=2.54; Rad_Dielectric=30; Rad_Lower=7.3; Rad_Upper=30; a_HA=580; a_WG=246; b_HA=500; b_WG=121; c_HA=0; c_WG=187; d_feed=85; h_feed=15; h_lower=18; h_upper=40}
! Header version: 2018
! Port assignment regex: !\s*Touchstone port\s*([0-9]+)\s*=\s*(CST MWS port|CST DS port)\s*([0-9]+|Zmin|Zmax)\s*\(\"(.*)\"\)(\s*mode\s*([0-9]+))?.*
! Touchstone port assignment:
! Touchstone port 1 = CST MWS port 1 ("")
! Touchstone port 2 = CST MWS port 2 ("")
# GHz S DB R 50
0.5                    -0.147884        -122.507         -64.4608         44.3094         -64.4608         44.3094      -0.00671402         151.119
0.501                  -0.152024        -122.936         -64.7689         40.4123         -64.7695         40.4121      -0.00677187         151.054
0.502                  -0.156351        -123.368         -65.0503          36.251         -65.0516           36.25      -0.00683042         150.988
0.503                   -0.16087        -123.801         -65.2981         31.8368         -65.2999         31.8343      -0.00688969         150.923
0.504                  -0.165585        -124.238         -65.5049         27.1923         -65.5074         27.1874      -0.00694969         150.857
0.505                  -0.170503        -124.677         -65.6642         22.3524         -65.6672         22.3445      -0.00701042         150.791
0.506                  -0.175628        -125.118         -65.7702         17.3639         -65.7736         17.3525      -0.00707189         150.726
0.507                  -0.180965        -125.563         -65.8189         12.2839         -65.8227         12.2684      -0.00713413          150.66
0.508                   -0.18652        -126.009         -65.8087         7.17541         -65.8126         7.15556      -0.00719713         150.594
0.509                  -0.192299        -126.459           -65.74         2.10275          -65.744         2.07855       -0.0072609         150.528
0.51                   -0.198307        -126.911         -65.6158        -2.87349         -65.6197        -2.90186      -0.00732547         150.462
0.511                  -0.204549        -127.365         -65.4409        -7.70106         -65.4446        -7.73323      -0.00739083         150.396
0.512                  -0.211031        -127.822         -65.2217        -12.3389         -65.2251        -12.3743        -0.007457          150.33
0.513                  -0.217759        -128.282          -64.965        -16.7582         -64.9681        -16.7964      -0.00752399         150.263
0.514                  -0.224738        -128.744         -64.6781        -20.9425         -64.6808        -20.9828      -0.00759182         150.197
0.515                  -0.231974        -129.209         -64.3678        -24.8854           -64.37        -24.9272      -0.00766049         150.131
0.516                  -0.239473        -129.677         -64.0402        -28.5892         -64.0421         -28.632      -0.00773001         150.064
0.517                   -0.24724        -130.147         -63.7009        -32.0622         -63.7023        -32.1055       -0.0078004         149.997
0.518                  -0.255281         -130.62         -63.3543        -35.3171         -63.3554        -35.3605      -0.00787167         149.931
0.519                  -0.263602        -131.095         -63.0043        -38.3689         -63.0049        -38.4121      -0.00794384         149.864
0.52                   -0.272209        -131.573         -62.6538        -41.2339         -62.6541        -41.2765       -0.0080169         149.797
0.521                  -0.281108        -132.054         -62.3051        -43.9287         -62.3052        -43.9706      -0.00809089          149.73
0.522                  -0.290304        -132.537         -61.9602        -46.4695           -61.96        -46.5104       -0.0081658         149.663
0.523                  -0.299804        -133.023         -61.6204        -48.8717         -61.6199        -48.9116      -0.00824166         149.596
0.524                  -0.309613        -133.511         -61.2867        -51.1498          -61.286        -51.1885      -0.00831848         149.529
0.525                  -0.319737        -134.002         -60.9597        -53.3171         -60.9588        -53.3546      -0.00839626         149.461
0.526                  -0.330183        -134.496           -60.64        -55.3859          -60.639        -55.4221      -0.00847503         149.394
0.527                  -0.340955        -134.992         -60.3279        -57.3673         -60.3267        -57.4021       -0.0085548         149.326
0.528                   -0.35206        -135.491         -60.0234        -59.2714         -60.0221        -59.3048      -0.00863558         149.259
0.529                  -0.363503        -135.992         -59.7267        -61.1073         -59.7253        -61.1393      -0.00871739         149.191
0.53                   -0.375292        -136.496         -59.4377        -62.8831         -59.4362        -62.9138      -0.00880023         149.123
0.531                   -0.38743        -137.003         -59.1564        -64.6065         -59.1548        -64.6357      -0.00888414         149.055
0.532                  -0.399925        -137.511         -58.8824         -66.284         -58.8808        -66.3119      -0.00896911         148.987
0.533                  -0.412781        -138.023         -58.6158        -67.9217         -58.6141        -67.9483      -0.00905518         148.919
0.534                  -0.426006        -138.537         -58.3563        -69.5252         -58.3546        -69.5504      -0.00914234         148.851
0.535                  -0.439603        -139.054         -58.1037        -71.0995          -58.102        -71.1233      -0.00923063         148.783
0.536                   -0.45358        -139.573         -57.8578         -72.649          -57.856        -72.6715      -0.00932005         148.714
0.537                   -0.46794        -140.094         -57.6183        -74.1779         -57.6165        -74.1991      -0.00941062         148.646
0.538                  -0.482691        -140.618          -57.385          -75.69         -57.3832          -75.71      -0.00950235         148.577
0.539                  -0.497838        -141.145         -57.1577        -77.1888          -57.156        -77.2076      -0.00959528         148.509
0.54                   -0.513385        -141.673         -56.9362        -78.6775         -56.9345         -78.695       -0.0096894          148.44
0.541                  -0.529339        -142.205         -56.7202         -80.159         -56.7185        -80.1753      -0.00978475         148.371
0.542                  -0.545704        -142.738         -56.5096         -81.636         -56.5079        -81.6512      -0.00988133         148.302
0.543                  -0.562485        -143.274          -56.304        -83.1111         -56.3025        -83.1252      -0.00997917         148.233
0.544                  -0.579688        -143.813         -56.1034        -84.5867         -56.1019        -84.5997       -0.0100783         148.164
0.545                  -0.597317        -144.354         -55.9076        -86.0649         -55.9061        -86.0769       -0.0101787         148.094
0.546                  -0.615378        -144.897         -55.7162        -87.5479         -55.7148        -87.5588       -0.0102804         148.025
0.547                  -0.633875        -145.442         -55.5292        -89.0376         -55.5279        -89.0475       -0.0103835         147.955
0.548                  -0.652812         -145.99         -55.3464        -90.5358         -55.3452        -90.5447       -0.0104879         147.886
0.549                  -0.672195         -146.54         -55.1676        -92.0444         -55.1664        -92.0523       -0.0105936         147.816
0.55                   -0.692027        -147.092         -54.9926        -93.5649         -54.9915         -93.572       -0.0107008         147.746
0.551                  -0.712313        -147.646         -54.8212         -95.099         -54.8202        -95.1052       -0.0108094         147.676
0.552                  -0.733056        -148.203         -54.6534        -96.6483         -54.6524        -96.6535       -0.0109194         147.606
0.553                  -0.754261        -148.762         -54.4889         -98.214          -54.488        -98.2185       -0.0110309         147.536
0.554                  -0.775931        -149.323         -54.3276        -99.7978         -54.3268        -99.8014       -0.0111438         147.465
0.555                  -0.798071        -149.886         -54.1693        -101.401         -54.1686        -101.404       -0.0112582         147.395
0.556                  -0.820682        -150.451          -54.014        -103.025         -54.0134        -103.027       -0.0113742         147.324
0.557                   -0.84377        -151.019         -53.8614         -104.67         -53.8609        -104.672       -0.0114917         147.253
0.558                  -0.867336        -151.588         -53.7114        -106.339          -53.711         -106.34       -0.0116108         147.182
0.559                  -0.891384        -152.159          -53.564        -108.032         -53.5636        -108.032       -0.0117315         147.112
0.56                   -0.915916        -152.733         -53.4188        -109.751         -53.4186         -109.75       -0.0118537          147.04
0.561                  -0.940935        -153.308         -53.2759        -111.496         -53.2758        -111.495       -0.0119777         146.969
0.562                  -0.966444        -153.886         -53.1351        -113.269         -53.1351        -113.268       -0.0121033         146.898
0.563                  -0.992443        -154.465         -52.9963        -115.071         -52.9963        -115.069       -0.0122305         146.826
0.564                   -1.01894        -155.047         -52.8592        -116.903         -52.8594          -116.9       -0.0123595         146.755
0.565                   -1.04593         -155.63         -52.7239        -118.766         -52.7242        -118.762       -0.0124903         146.683
0.566                   -1.07341        -156.215         -52.5902         -120.66         -52.5905        -120.656       -0.0126228         146.611
0.567                   -1.10139        -156.802         -52.4579        -122.587         -52.4583        -122.583       -0.0127571         146.539
0.568                   -1.12988        -157.391         -52.3269        -124.548         -52.3275        -124.543       -0.0128933         146.467
0.569                   -1.15886        -157.982         -52.1972        -126.543         -52.1978        -126.538       -0.0130312         146.395
0.57                    -1.18834        -158.575         -52.0685        -128.573         -52.0692        -128.568       -0.0131711         146.322
0.571                   -1.21833        -159.169         -51.9407         -130.64         -51.9415        -130.634       -0.0133129          146.25
0.572                   -1.24881        -159.766         -51.8138        -132.743         -51.8147        -132.737       -0.0134566         146.177
0.573                    -1.2798        -160.364         -51.6876        -134.884         -51.6885        -134.878       -0.0136023         146.104
0.574                   -1.31129        -160.964         -51.5619        -137.063         -51.5629        -137.056         -0.01375         146.031
0.575                   -1.34329        -161.566         -51.4367         -139.28         -51.4378        -139.274       -0.0138998         145.958
0.576                   -1.37578        -162.169         -51.3117        -141.537          -51.313         -141.53       -0.0140516         145.884
0.577                   -1.40878        -162.775          -51.187        -143.833         -51.1883        -143.826       -0.0142055         145.811
0.578                   -1.44227        -163.382         -51.0624        -146.169         -51.0637        -146.162       -0.0143615         145.737
0.579                   -1.47627        -163.991         -50.9377        -148.546         -50.9391        -148.539       -0.0145197         145.664
0.58                    -1.51076        -164.602         -50.8128        -150.962         -50.8143        -150.955       -0.0146801          145.59
0.581                   -1.54576        -165.215         -50.6876        -153.419         -50.6892        -153.412       -0.0148428         145.516
0.582                   -1.58125        -165.829         -50.5621        -155.917         -50.5637         -155.91       -0.0150077         145.441
0.583                   -1.61723        -166.446          -50.436        -158.455         -50.4376        -158.448       -0.0151749         145.367
0.584                   -1.65371        -167.064         -50.3093        -161.033          -50.311        -161.026       -0.0153444         145.292
0.585                   -1.69069        -167.684          -50.182        -163.651         -50.1837        -163.644       -0.0155164         145.218
0.586                   -1.72815        -168.306         -50.0538        -166.308         -50.0555        -166.302       -0.0156908         145.143
0.587                   -1.76611        -168.931         -49.9247        -169.005         -49.9264        -168.998       -0.0158676         145.068
0.588                   -1.80456        -169.557         -49.7946        -171.739         -49.7964        -171.733       -0.0160469         144.993
0.589                    -1.8435        -170.185         -49.6635        -174.511         -49.6653        -174.505       -0.0162288         144.917
0.59                    -1.88293        -170.816         -49.5314         -177.32         -49.5331        -177.314       -0.0164132         144.842
0.591                   -1.92284        -171.448          -49.398         179.836         -49.3998         179.842       -0.0166003         144.766
0.592                   -1.96325        -172.083         -49.2635         176.958         -49.2653         176.963       -0.0167901          144.69
0.593                   -2.00415        -172.721         -49.1278         174.047         -49.1295         174.052       -0.0169825         144.614
0.594                   -2.04554         -173.36         -48.9908         171.103         -48.9925         171.108       -0.0171778         144.538
0.595                   -2.08742        -174.003         -48.8526          168.13         -48.8543         168.134       -0.0173758         144.461
0.596                   -2.12979        -174.647         -48.7132         165.127         -48.7148         165.132       -0.0175767         144.384
0.597                   -2.17266        -175.295         -48.5726         162.098         -48.5742         162.102       -0.0177804         144.308
0.598                   -2.21604        -175.945         -48.4308         159.043         -48.4324         159.047       -0.0179872         144.231
0.599                   -2.25992        -176.598         -48.2879         155.965         -48.2894         155.969       -0.0181969         144.153
0.6                     -2.30431        -177.254          -48.144         152.865         -48.1454         152.869       -0.0184096         144.076
0.601                   -2.34921        -177.913         -47.9991         149.746         -48.0004         149.749       -0.0186255         143.998
0.602                   -2.39465        -178.576         -47.8533          146.61         -47.8546         146.612       -0.0188445         143.921
0.603                   -2.44062        -179.242         -47.7067         143.457         -47.7079          143.46       -0.0190667         143.843
0.604                   -2.48714        -179.912         -47.5594         140.292         -47.5606         140.294       -0.0192922         143.765
0.605                   -2.53422         179.415         -47.4116         137.115         -47.4126         137.117        -0.019521         143.686
0.606                   -2.58187         178.738         -47.2633         133.929         -47.2643         133.931       -0.0197532         143.608
0.607                   -2.63012         178.057         -47.1147         130.736         -47.1156         130.738       -0.0199888         143.529
0.608                   -2.67898         177.371         -46.9659         127.538         -46.9667          127.54       -0.0202278          143.45
0.609                   -2.72847         176.681         -46.8171         124.338         -46.8178         124.339       -0.0204705          143.37
0.61                    -2.77863         175.986         -46.6683         121.136         -46.6689         121.137       -0.0207167         143.291
0.611                   -2.82947         175.287         -46.5198         117.935         -46.5203         117.936       -0.0209666         143.211
0.612                   -2.88103         174.582         -46.3716         114.738          -46.372         114.738       -0.0212202         143.131
0.613                   -2.93335         173.873         -46.2239         111.545         -46.2243         111.545       -0.0214776         143.051
0.614                   -2.98647         173.158         -46.0769         108.359         -46.0771         108.359       -0.0217389         142.971
0.615                   -3.04042         172.437         -45.9306         105.181         -45.9307         105.181       -0.0220042          142.89
0.616                   -3.09525          171.71         -45.7851         102.014         -45.7852         102.013       -0.0222734          142.81
0.617                   -3.15102         170.977         -45.6407         98.8573         -45.6406          98.857       -0.0225467         142.729
0.618                   -3.20779         170.238         -45.4973         95.7138         -45.4972         95.7133       -0.0228241         142.647
0.619                   -3.26562         169.493          -45.355         92.5844         -45.3549         92.5838       -0.0231058         142.566
0.62                    -3.32457         168.741         -45.2141         89.4703         -45.2138         89.4696       -0.0233917         142.484
0.621                   -3.38471         167.982         -45.0745         86.3727         -45.0741         86.3719        -0.023682         142.402
0.622                   -3.44614         167.217         -44.9362         83.2924         -44.9358         83.2916       -0.0239768          142.32
0.623                   -3.50892         166.444         -44.7994         80.2305          -44.799         80.2296       -0.0242761         142.237
0.624                   -3.57315         165.665         -44.6642         77.1877         -44.6636         77.1868       -0.0245799         142.155
0.625                   -3.63893         164.879         -44.5304         74.1647         -44.5298         74.1637       -0.0248885         142.072
0.626                   -3.70636         164.085         -44.3982          71.162         -44.3976         71.1609       -0.0252018         141.988
0.627                   -3.77553         163.285         -44.2676         68.1801         -44.2669          68.179         -0.02552         141.905
0.628                   -3.84658         162.477         -44.1386         65.2194         -44.1379         65.2182       -0.0258432         141.821
0.629                    -3.9196         161.663         -44.0112         62.2802         -44.0104          62.279       -0.0261713         141.737
0.63                    -3.99472         160.843         -43.8854         59.3626         -43.8846         59.3613       -0.0265046         141.652
0.631                   -4.07205         160.016         -43.7611         56.4668         -43.7603         56.4655       -0.0268432         141.568
0.632                   -4.15174         159.184         -43.6384         53.5927         -43.6375         53.5914        -0.027187         141.483
0.633                   -4.23388         158.346         -43.5172         50.7404         -43.5163         50.7391       -0.0275363         141.398
0.634                   -4.31862         157.504         -43.3975         47.9097         -43.3966         47.9084        -0.027891         141.312
0.635                   -4.40608         156.657         -43.2793         45.1004         -43.2783          45.099       -0.0282514         141.226
0.636                   -4.49636         155.807         -43.1624         42.3122         -43.1615         42.3108       -0.0286176          141.14
0.637                   -4.58959         154.955          -43.047         39.5448          -43.046         39.5434       -0.0289895         141.054
0.638                   -4.68587           154.1         -42.9329         36.7978         -42.9319         36.7964       -0.0293675         140.967
0.639                   -4.78529         153.246           -42.82         34.0707         -42.8191         34.0694       -0.0297514          140.88
0.64                    -4.88795         152.391         -42.7084         31.3632         -42.7074         31.3619       -0.0301416         140.793
0.641                   -4.99392         151.539          -42.598         28.6747          -42.597         28.6734        -0.030538         140.705
0.642                   -5.10324         150.689         -42.4887         26.0046         -42.4877         26.0034       -0.0309409         140.617
0.643                   -5.21598         149.843         -42.3804         23.3524         -42.3794         23.3511       -0.0313503         140.529
0.644                   -5.33215         149.003         -42.2732         20.7174         -42.2722         20.7161       -0.0317663          140.44
0.645                   -5.45175          148.17         -42.1669         18.0989         -42.1659         18.0977       -0.0321892         140.351
0.646                   -5.57478         147.346         -42.0614         15.4964         -42.0605         15.4952       -0.0326189         140.262
0.647                   -5.70119         146.531         -41.9569          12.909          -41.956         12.9079       -0.0330558         140.172
0.648                   -5.83093         145.727         -41.8531         10.3362         -41.8522          10.335       -0.0334998         140.082
0.649                   -5.96393         144.936         -41.7501         7.77715         -41.7492         7.77603       -0.0339512         139.992
0.65                    -6.10008         144.159         -41.6477         5.23116         -41.6468         5.23007       -0.0344101         139.901
0.651                   -6.23927         143.397          -41.546         2.69749         -41.5451         2.69643       -0.0348766          139.81
0.652                   -6.38136         142.651         -41.4448        0.175406          -41.444        0.174381       -0.0353509         139.719
0.653                    -6.5262         141.923         -41.3442        -2.33584         -41.3434        -2.33684       -0.0358331         139.627
0.654                   -6.67362         141.213          -41.244        -4.83701         -41.2432        -4.83797       -0.0363235         139.535
0.655                   -6.82345         140.522         -41.1443        -7.32883         -41.1435        -7.32975       -0.0368221         139.442
0.656                   -6.97551         139.852         -41.0449        -9.81205         -41.0442        -9.81294       -0.0373292         139.349
0.657                   -7.12959         139.202         -40.9459        -12.2874         -40.9453        -12.2883       -0.0378449         139.255
0.658                    -7.2855         138.573         -40.8472        -14.7556         -40.8466        -14.7565       -0.0383693         139.162
0.659                   -7.44305         137.965         -40.7488        -17.2175         -40.7482        -17.2182       -0.0389027         139.067
0.66                    -7.60202          137.38         -40.6506        -19.6736           -40.65        -19.6743       -0.0394453         138.973
0.661                   -7.76224         136.815         -40.5526        -22.1247          -40.552        -22.1254       -0.0399973         138.878
0.662                    -7.9235         136.273         -40.4547        -24.5716         -40.4542        -24.5723       -0.0405587         138.782
0.663                   -8.08564         135.752          -40.357        -27.0148         -40.3565        -27.0155       -0.0411299         138.686
0.664                   -8.24848         135.252         -40.2593        -29.4552         -40.2588        -29.4558       -0.0417111          138.59
0.665                   -8.41186         134.773         -40.1617        -31.8932         -40.1613        -31.8938       -0.0423024         138.493
0.666                   -8.57564         134.314         -40.0641        -34.3296         -40.0638        -34.3301       -0.0429041         138.396
0.667                   -8.73968         133.875         -39.9666         -36.765         -39.9662        -36.7655       -0.0435163         138.298
0.668                   -8.90386         133.455          -39.869        -39.1999         -39.8687        -39.2004       -0.0441394           138.2
0.669                   -9.06808         133.055         -39.7714        -41.6351         -39.7711        -41.6356       -0.0447736         138.101
0.67                    -9.23225         132.672         -39.6738         -44.071         -39.6735        -44.0714        -0.045419         138.002
0.671                   -9.39629         132.307          -39.576        -46.5082         -39.5758        -46.5086        -0.046076         137.902
0.672                   -9.56013         131.959         -39.4782        -48.9473          -39.478        -48.9477       -0.0467448         137.802
0.673                   -9.72373         131.627         -39.3803        -51.3888         -39.3801        -51.3891       -0.0474257         137.701
0.674                   -9.88706          131.31         -39.2822        -53.8331         -39.2821        -53.8334        -0.048119           137.6
0.675                   -10.0501         131.009          -39.184        -56.2807         -39.1839         -56.281       -0.0488248         137.498
0.676                   -10.2128         130.722         -39.0857        -58.7322         -39.0856        -58.7324       -0.0495436         137.396
0.677                   -10.3751         130.449         -38.9873        -61.1878         -38.9872        -61.1881       -0.0502756         137.293
0.678                   -10.5372         130.189         -38.8886        -63.6482         -38.8886        -63.6484       -0.0510211          137.19
0.679                    -10.699         129.943         -38.7899        -66.1135         -38.7898        -66.1137       -0.0517805         137.086
0.68                    -10.8604         129.709         -38.6909        -68.5843         -38.6909        -68.5844       -0.0525541         136.981
0.681                   -11.0217         129.487         -38.5918        -71.0607         -38.5918        -71.0609       -0.0533422         136.876
0.682                   -11.1827         129.278         -38.4926        -73.5433         -38.4926        -73.5434       -0.0541452         136.771
0.683                   -11.3435          129.08         -38.3932        -76.0322         -38.3932        -76.0323       -0.0549634         136.664
0.684                   -11.5042         128.894         -38.2936        -78.5277         -38.2936        -78.5279       -0.0557974         136.557
0.685                   -11.6648         128.719         -38.1938        -81.0302         -38.1939        -81.0303       -0.0566474          136.45
0.686                   -11.8254         128.556          -38.094        -83.5397         -38.0941        -83.5398       -0.0575139         136.342
0.687                    -11.986         128.404          -37.994        -86.0565         -37.9941        -86.0566       -0.0583973         136.233
0.688                   -12.1467         128.264         -37.8938        -88.5808         -37.8939        -88.5808       -0.0592982         136.123
0.689                   -12.3074         128.136         -37.7936        -91.1127         -37.7937        -91.1127        -0.060217         136.013
0.69                    -12.4684          128.02         -37.6932        -93.6523         -37.6934        -93.6524       -0.0611542         135.902
0.691                   -12.6295         127.916         -37.5928        -96.1998         -37.5929        -96.1999       -0.0621105         135.791
0.692                    -12.791         127.824         -37.4922        -98.7552         -37.4924        -98.7552       -0.0630863         135.678
0.693                   -12.9527         127.746         -37.3916        -101.319         -37.3918        -101.319       -0.0640824         135.565
0.694                   -13.1148         127.681         -37.2909         -103.89         -37.2911         -103.89       -0.0650993         135.451
0.695                   -13.2773         127.631         -37.1902        -106.469         -37.1904        -106.469       -0.0661379         135.337
0.696                   -13.4403         127.595         -37.0895        -109.056         -37.0897        -109.056       -0.0671988         135.222
0.697                   -13.6037         127.575         -36.9888        -111.651          -36.989        -111.651       -0.0682829         135.106