! TOUCHSTONE file generated by CST MICROWAVE STUDIO
! Date and time: Fri Oct  2 18:59:31 2020
! Project name: Scenario_1_Free_Space_out_of_line.cst
! Parameters = {Lambda=346.42; Step_1=17.321; dy1=-207.272; dx1=1039; L_HA=400; MT=2.54; Rad_Dielectric=30; Rad_Lower=7.3; Rad_Upper=30; a_HA=580; a_WG=246; b_HA=500; b_WG=121; c_HA=0; c_WG=187; d_feed=85; h_feed=15; h_lower=18; h_upper=40}
! Header version: 2018
! Port assignment regex: !\s*Touchstone port\s*([0-9]+)\s*=\s*(CST MWS port|CST DS port)\s*([0-9]+|Zmin|Zmax)\s*\(\"(.*)\"\)(\s*mode\s*([0-9]+))?.*
! Touchstone port assignment:
! Touchstone port 1 = CST MWS port 1 ("")
! Touchstone port 2 = CST MWS port 2 ("")
# GHz S DB R 50
0.5                    -0.148057        -122.566         -64.6739         43.6019         -64.6739         43.6019      -0.00671299         151.103
0.501                  -0.152087        -123.003         -64.6087         40.3666         -64.6092         40.3673      -0.00676912         151.037
0.502                  -0.156336        -123.443          -64.531         37.1315         -64.5321         37.1328      -0.00682609         150.972
0.503                  -0.160809        -123.886         -64.4412         33.9025         -64.4428          33.904      -0.00688391         150.906
0.504                  -0.165509         -124.33         -64.3396         30.6852         -64.3416         30.6866      -0.00694258         150.841
0.505                  -0.170439        -124.777         -64.2265         27.4846         -64.2289         27.4859      -0.00700211         150.775
0.506                  -0.175605        -125.226         -64.1024         24.3057         -64.1053         24.3066       -0.0070625         150.709
0.507                   -0.18101        -125.677          -63.968         21.1527         -63.9712          21.153      -0.00712377         150.643
0.508                  -0.186658         -126.13         -63.8237         18.0292         -63.8273         18.0289      -0.00718592         150.577
0.509                  -0.192552        -126.586         -63.6704         14.9386         -63.6743         14.9375      -0.00724897         150.511
0.51                   -0.198698        -127.044         -63.5086         11.8835         -63.5127         11.8815       -0.0073129         150.445
0.511                  -0.205099        -127.504          -63.339         8.86596         -63.3434         8.86297      -0.00737775         150.379
0.512                  -0.211759        -127.967         -63.1623         5.88759          -63.167          5.8836       -0.0074435         150.313
0.513                  -0.218682        -128.432         -62.9792         2.94946         -62.9841         2.94445      -0.00751018         150.246
0.514                  -0.225873        -128.899         -62.7904       0.0521981         -62.7954       0.0461723      -0.00757779          150.18
0.515                  -0.233335        -129.368         -62.5966        -2.80398         -62.6017        -2.81101      -0.00764633         150.114
0.516                  -0.241074         -129.84         -62.3982        -5.61924         -62.4035        -5.62725      -0.00771582         150.047
0.517                  -0.249092        -130.314          -62.196        -8.39408         -62.2013        -8.40303      -0.00778627          149.98
0.518                  -0.257394         -130.79         -61.9905        -11.1293         -61.9959        -11.1391      -0.00785769         149.914
0.519                  -0.265986        -131.269         -61.7822        -13.8258         -61.7875        -13.8365      -0.00793007         149.847
0.52                   -0.274869         -131.75         -61.5715        -16.4849         -61.5769        -16.4964      -0.00800345          149.78
0.521                   -0.28405        -132.233          -61.359         -19.108         -61.3643        -19.1202      -0.00807781         149.713
0.522                  -0.293532        -132.718         -61.1449        -21.6966         -61.1502        -21.7093      -0.00815319         149.646
0.523                   -0.30332        -133.206         -60.9298        -24.2521         -60.9351        -24.2655      -0.00822957         149.578
0.524                  -0.313417        -133.696         -60.7139        -26.7765         -60.7191        -26.7903      -0.00830698         149.511
0.525                  -0.323829        -134.188         -60.4975        -29.2712         -60.5026        -29.2854      -0.00838543         149.444
0.526                  -0.334558        -134.683         -60.2809        -31.7382         -60.2859        -31.7527      -0.00846492         149.376
0.527                  -0.345611         -135.18         -60.0643        -34.1792         -60.0693        -34.1939      -0.00854547         149.309
0.528                  -0.356991        -135.679         -59.8481        -36.5958         -59.8529        -36.6108      -0.00862709         149.241
0.529                  -0.368701         -136.18         -59.6322        -38.9899          -59.637         -39.005      -0.00870979         149.173
0.53                   -0.380748        -136.684         -59.4171        -41.3632         -59.4216        -41.3784      -0.00879358         149.106
0.531                  -0.393134         -137.19         -59.2027        -43.7174         -59.2071        -43.7326      -0.00887848         149.038
0.532                  -0.405864        -137.698         -58.9892        -46.0542         -58.9935        -46.0692       -0.0089645          148.97
0.533                  -0.418942        -138.209         -58.7768         -48.375         -58.7809        -48.3899      -0.00905164         148.901
0.534                  -0.432373        -138.721         -58.5655        -50.6816         -58.5695        -50.6963      -0.00913993         148.833
0.535                  -0.446161        -139.236         -58.3554        -52.9754         -58.3593        -52.9899      -0.00922937         148.765
0.536                   -0.46031        -139.753         -58.1467        -55.2579         -58.1504        -55.2721      -0.00931998         148.697
0.537                  -0.474824        -140.273         -57.9393        -57.5305         -57.9429        -57.5443      -0.00941177         148.628
0.538                  -0.489708        -140.794         -57.7333        -59.7945         -57.7368         -59.808      -0.00950476         148.559
0.539                  -0.504965        -141.318         -57.5288        -62.0514         -57.5321        -62.0645      -0.00959896         148.491
0.54                   -0.520599        -141.845         -57.3259        -64.3023          -57.329         -64.315      -0.00969439         148.422
0.541                  -0.536616        -142.373         -57.1245        -66.5486         -57.1274        -66.5607      -0.00979106         148.353
0.542                  -0.553019        -142.903         -56.9246        -68.7912         -56.9274        -68.8029      -0.00988898         148.284
0.543                  -0.569811        -143.436         -56.7264        -71.0315          -56.729        -71.0426      -0.00998817         148.215
0.544                  -0.586997        -143.971         -56.5297        -73.2704         -56.5322         -73.281       -0.0100887         148.145
0.545                  -0.604582        -144.508         -56.3347         -75.509          -56.337         -75.519       -0.0101904         148.076
0.546                  -0.622568        -145.048         -56.1413        -77.7483         -56.1435        -77.7577       -0.0102935         148.006
0.547                   -0.64096        -145.589         -55.9496        -79.9892         -55.9516         -79.998        -0.010398         147.937
0.548                  -0.659762        -146.133         -55.7594        -82.2326         -55.7613        -82.2408       -0.0105038         147.867
0.549                  -0.678977        -146.679         -55.5709        -84.4794         -55.5726         -84.487       -0.0106109         147.797
0.55                    -0.69861        -147.227         -55.3841        -86.7305         -55.3856        -86.7374       -0.0107195         147.727
0.551                  -0.718664        -147.777         -55.1988        -88.9865         -55.2002        -88.9928       -0.0108295         147.657
0.552                  -0.739142        -148.329         -55.0152        -91.2483         -55.0165         -91.254       -0.0109409         147.587
0.553                  -0.760049        -148.884         -54.8332        -93.5166         -54.8343        -93.5216       -0.0110537         147.517
0.554                  -0.781389         -149.44         -54.6528        -95.7921         -54.6538        -95.7964        -0.011168         147.446
0.555                  -0.803164        -149.999          -54.474        -98.0753         -54.4748         -98.079       -0.0112838         147.376
0.556                  -0.825378         -150.56         -54.2968        -100.367         -54.2975         -100.37       -0.0114011         147.305
0.557                  -0.848035        -151.123         -54.1211        -102.668         -54.1217         -102.67       -0.0115199         147.235
0.558                  -0.871138        -151.688          -53.947        -104.978         -53.9474         -104.98       -0.0116403         147.164
0.559                  -0.894691        -152.255         -53.7745        -107.298         -53.7747        -107.299       -0.0117622         147.093
0.56                   -0.918696        -152.825         -53.6034        -109.629         -53.6036        -109.629       -0.0118857         147.021
0.561                  -0.943158        -153.396         -53.4339        -111.971         -53.4339        -111.971       -0.0120109          146.95
0.562                   -0.96808        -153.969         -53.2659        -114.324         -53.2658        -114.323       -0.0121376         146.879
0.563                  -0.993464        -154.545         -53.0994        -116.689         -53.0991        -116.688       -0.0122661         146.807
0.564                   -1.01931        -155.123         -52.9343        -119.066          -52.934        -119.064       -0.0123962         146.736
0.565                   -1.04563        -155.702         -52.7707        -121.456         -52.7702        -121.454        -0.012528         146.664
0.566                   -1.07242        -156.284         -52.6086        -123.858          -52.608        -123.856       -0.0126616         146.592
0.567                   -1.09969        -156.868         -52.4478        -126.274         -52.4471        -126.271       -0.0127969          146.52
0.568                   -1.12743        -157.454         -52.2885        -128.703         -52.2877        -128.699        -0.012934         146.448
0.569                   -1.15566        -158.042         -52.1306        -131.145         -52.1297        -131.141       -0.0130729         146.375
0.57                    -1.18437        -158.632          -51.974        -133.601          -51.973        -133.596       -0.0132137         146.303
0.571                   -1.21357        -159.224         -51.8188        -136.071         -51.8177        -136.066       -0.0133563          146.23
0.572                   -1.24325        -159.818         -51.6649        -138.555         -51.6638        -138.549       -0.0135009         146.157
0.573                   -1.27343        -160.415         -51.5124        -141.052         -51.5112        -141.047       -0.0136473         146.084
0.574                   -1.30411        -161.013         -51.3612        -143.564         -51.3599        -143.558       -0.0137957         146.011
0.575                   -1.33528        -161.614         -51.2112         -146.09         -51.2099        -146.084       -0.0139461         145.938
0.576                   -1.36696        -162.216         -51.0626         -148.63         -51.0611        -148.624       -0.0140985         145.865
0.577                   -1.39914        -162.821         -50.9151        -151.185         -50.9136        -151.178        -0.014253         145.791
0.578                   -1.43183        -163.428         -50.7689        -153.753         -50.7674        -153.746       -0.0144095         145.718
0.579                   -1.46503        -164.037          -50.624        -156.335         -50.6224        -156.328       -0.0145681         145.644
0.58                    -1.49874        -164.648         -50.4802        -158.931         -50.4785        -158.924       -0.0147289          145.57
0.581                   -1.53297        -165.262         -50.3375         -161.54         -50.3359        -161.533       -0.0148919         145.496
0.582                   -1.56772        -165.877         -50.1961        -164.163         -50.1944        -164.156       -0.0150571         145.421
0.583                   -1.60299        -166.495         -50.0557          -166.8          -50.054        -166.792       -0.0152245         145.347
0.584                   -1.63879        -167.115         -49.9165        -169.449         -49.9148        -169.442       -0.0153943         145.272
0.585                   -1.67512        -167.737         -49.7783        -172.111         -49.7766        -172.104       -0.0155663         145.198
0.586                   -1.71199        -168.362         -49.6412        -174.785         -49.6395        -174.778       -0.0157408         145.123
0.587                   -1.74939        -168.988         -49.5051        -177.472         -49.5034        -177.465       -0.0159176         145.047
0.588                   -1.78733        -169.618         -49.3701          179.83         -49.3684         179.837       -0.0160969         144.972
0.589                   -1.82582        -170.249          -49.236          177.12         -49.2343         177.127       -0.0162786         144.897
0.59                    -1.86487        -170.883         -49.1029         174.399         -49.1012         174.406       -0.0164629         144.821
0.591                   -1.90447        -171.519         -48.9707         171.668          -48.969         171.675       -0.0166498         144.745
0.592                   -1.94463        -172.158         -48.8394         168.926         -48.8378         168.933       -0.0168393         144.669
0.593                   -1.98535          -172.8          -48.709         166.175         -48.7074         166.181       -0.0170314         144.593
0.594                   -2.02665        -173.444         -48.5794         163.414         -48.5779         163.421       -0.0172263         144.517
0.595                   -2.06853         -174.09         -48.4507         160.645         -48.4492         160.651       -0.0174239          144.44
0.596                   -2.11099         -174.74         -48.3228         157.867         -48.3213         157.873       -0.0176243         144.364
0.597                   -2.15405        -175.392         -48.1956         155.082         -48.1942         155.088       -0.0178275         144.287
0.598                   -2.19771        -176.047         -48.0692         152.289         -48.0678         152.295       -0.0180337          144.21
0.599                   -2.24198        -176.704         -47.9435          149.49         -47.9422         149.495       -0.0182428         144.132
0.6                     -2.28687        -177.365         -47.8185         146.685         -47.8172         146.689       -0.0184549         144.055
0.601                   -2.33239        -178.029         -47.6941         143.874         -47.6929         143.878         -0.01867         143.977
0.602                   -2.37855        -178.696         -47.5703         141.057         -47.5692         141.061       -0.0188883           143.9
0.603                   -2.42536        -179.366         -47.4472         138.237         -47.4462         138.241       -0.0191097         143.821
0.604                   -2.47283         179.961         -47.3246         135.412         -47.3237         135.416       -0.0193343         143.743
0.605                   -2.52099         179.284         -47.2026         132.584         -47.2017         132.587       -0.0195623         143.665
0.606                   -2.56984         178.604         -47.0811         129.753         -47.0803         129.756       -0.0197935         143.586
0.607                    -2.6194         177.921           -46.96          126.92         -46.9593         126.923       -0.0200282         143.507
0.608                   -2.66969         177.233         -46.8395         124.085         -46.8389         124.087       -0.0202663         143.428
0.609                   -2.72073         176.542         -46.7193         121.249         -46.7188         121.251        -0.020508         143.349
0.61                    -2.77253         175.848         -46.5996         118.412         -46.5992         118.414       -0.0207532         143.269
0.611                   -2.82513         175.149         -46.4803         115.575           -46.48         115.577       -0.0210021          143.19
0.612                   -2.87854         174.446         -46.3613         112.739         -46.3611          112.74       -0.0212547          143.11
0.613                    -2.9328         173.739         -46.2427         109.903         -46.2426         109.904       -0.0215111         143.029
0.614                   -2.98793         173.028         -46.1244         107.068         -46.1244         107.069       -0.0217714         142.949
0.615                   -3.04396         172.312         -46.0064         104.236         -46.0064         104.236       -0.0220356         142.868
0.616                   -3.10093         171.592         -45.8887         101.405         -45.8888         101.405       -0.0223038         142.787
0.617                   -3.15886         170.867         -45.7713         98.5772         -45.7714         98.5766       -0.0225761         142.706
0.618                   -3.21781         170.138         -45.6541         95.7522         -45.6543         95.7514       -0.0228525         142.625
0.619                   -3.27782         169.404         -45.5371         92.9307         -45.5374         92.9296       -0.0231332         142.543
0.62                    -3.33892         168.664         -45.4203         90.1129         -45.4207         90.1116       -0.0234182         142.462
0.621                   -3.40117          167.92         -45.3037         87.2992         -45.3042         87.2977       -0.0237076         142.379
0.622                   -3.46461         167.171         -45.1873         84.4899         -45.1879         84.4882       -0.0240015         142.297
0.623                   -3.52931         166.417         -45.0711         81.6854         -45.0717         81.6835       -0.0242999         142.215
0.624                   -3.59532         165.657          -44.955         78.8858         -44.9557         78.8837        -0.024603         142.132
0.625                    -3.6627         164.892         -44.8391         76.0915         -44.8398         76.0892       -0.0249109         142.049
0.626                   -3.73153         164.122         -44.7233         73.3026         -44.7241         73.3002       -0.0252236         141.965
0.627                   -3.80187         163.346         -44.6076         70.5195         -44.6084         70.5169       -0.0255412         141.882
0.628                    -3.8738         162.565          -44.492         67.7422         -44.4929         67.7395       -0.0258639         141.798
0.629                   -3.94739         161.779         -44.3766         64.9709         -44.3775         64.9681       -0.0261917         141.713
0.63                    -4.02273         160.988         -44.2612         62.2058         -44.2622         62.2029       -0.0265247         141.629
0.631                    -4.0999         160.192          -44.146          59.447          -44.147         59.4441        -0.026863         141.544
0.632                   -4.17901         159.391         -44.0308         56.6946         -44.0319         56.6916       -0.0272068         141.459
0.633                   -4.26013         158.585         -43.9157         53.9486         -43.9169         53.9455       -0.0275561         141.374
0.634                   -4.34336         157.774         -43.8007         51.2092         -43.8019         51.2061       -0.0279111         141.288
0.635                   -4.42882          156.96         -43.6858         48.4763          -43.687         48.4731       -0.0282718         141.202
0.636                   -4.51659         156.141          -43.571           45.75         -43.5722         45.7468       -0.0286384         141.116
0.637                   -4.60678         155.319         -43.4563         43.0302         -43.4575          43.027        -0.029011          141.03
0.638                   -4.69949         154.494         -43.3416          40.317         -43.3429         40.3138       -0.0293897         140.943
0.639                   -4.79484         153.667         -43.2271         37.6103         -43.2283         37.6071       -0.0297747         140.856
0.64                    -4.89291         152.838         -43.1126           34.91         -43.1138         34.9069        -0.030166         140.768
0.641                   -4.99382         152.008         -42.9982         32.2162         -42.9994         32.2131       -0.0305638         140.681
0.642                   -5.09765         151.178         -42.8838         29.5286         -42.8851         29.5256       -0.0309682         140.592
0.643                    -5.2045         150.348         -42.7696         26.8473         -42.7708         26.8443       -0.0313794         140.504
0.644                   -5.31446         149.519         -42.6555          24.172         -42.6567         24.1691       -0.0317975         140.415
0.645                   -5.42759         148.693         -42.5414         21.5027         -42.5426         21.4999       -0.0322225         140.326
0.646                   -5.54396         147.871         -42.4274         18.8393         -42.4287         18.8365       -0.0326548         140.237
0.647                   -5.66363         147.054         -42.3136         16.1815         -42.3148         16.1788       -0.0330944         140.147
0.648                   -5.78664         146.243         -42.1998         13.5292          -42.201         13.5267       -0.0335414         140.057
0.649                   -5.91301         145.439         -42.0862         10.8823         -42.0873         10.8799        -0.033996         139.966
0.65                    -6.04274         144.643         -41.9727         8.24061         -41.9738         8.23825       -0.0344584         139.876
0.651                   -6.17584         143.858         -41.8592         5.60388         -41.8603         5.60162       -0.0349287         139.784
0.652                   -6.31227         143.085          -41.746         2.97195          -41.747          2.9698       -0.0354071         139.693
0.653                   -6.45197         142.324         -41.6328         0.34462         -41.6338        0.342581       -0.0358937         139.601
0.654                   -6.59487         141.578         -41.5198        -2.27832         -41.5208        -2.28024       -0.0363887         139.508
0.655                   -6.74088         140.848         -41.4069        -4.89707         -41.4079        -4.89888       -0.0368923         139.416
0.656                   -6.88989         140.135         -41.2942        -7.51185         -41.2951        -7.51355       -0.0374046         139.323
0.657                   -7.04175          139.44         -41.1816        -10.1229         -41.1825        -10.1245       -0.0379258         139.229
0.658                   -7.19631         138.765         -41.0691        -12.7304           -41.07        -12.7319        -0.038456         139.135
0.659                   -7.35339         138.111         -40.9569        -15.3346         -40.9577        -15.3359       -0.0389955         139.041
0.66                     -7.5128         137.478         -40.8448        -17.9357         -40.8455         -17.937       -0.0395445         138.946
0.661                   -7.67434         136.869         -40.7329         -20.534         -40.7336        -20.5351        -0.040103         138.851
0.662                   -7.83777         136.282         -40.6212        -23.1296         -40.6218        -23.1307       -0.0406713         138.755
0.663                   -8.00287          135.72         -40.5096        -25.7229         -40.5102        -25.7239       -0.0412496         138.659
0.664                   -8.16941         135.181         -40.3983         -28.314         -40.3989        -28.3149       -0.0418381         138.563
0.665                   -8.33715         134.668         -40.2872        -30.9032         -40.2877         -30.904       -0.0424368         138.466
0.666                   -8.50585         134.179         -40.1762        -33.4907         -40.1767        -33.4913       -0.0430461         138.368
0.667                   -8.67528         133.715         -40.0655        -36.0767          -40.066        -36.0772        -0.043666         138.271
0.668                   -8.84521         133.274         -39.9551        -38.6614         -39.9554        -38.6619       -0.0442968         138.172
0.669                   -9.01544         132.858         -39.8448        -41.2451         -39.8452        -41.2455       -0.0449387         138.074
0.67                    -9.18575         132.466         -39.7348         -43.828         -39.7351        -43.8283       -0.0455917         137.974
0.671                   -9.35597         132.096         -39.6251        -46.4103         -39.6253        -46.4105       -0.0462562         137.875
0.672                   -9.52591         131.748         -39.5156        -48.9921         -39.5158        -48.9923       -0.0469321         137.774
0.673                   -9.69545         131.421         -39.4064        -51.5738         -39.4065        -51.5739       -0.0476198         137.674
0.674                   -9.86443         131.114         -39.2974        -54.1554         -39.2975        -54.1555       -0.0483194         137.572
0.675                   -10.0328         130.827         -39.1887        -56.7373         -39.1888        -56.7373       -0.0490309         137.471
0.676                   -10.2003         130.558         -39.0804        -59.3195         -39.0804        -59.3195       -0.0497545         137.368
0.677                   -10.3671         130.306         -38.9722        -61.9023         -38.9722        -61.9023       -0.0504904         137.265
0.678                   -10.5331          130.07         -38.8644        -64.4858         -38.8644        -64.4858       -0.0512387         137.162
0.679                   -10.6981          129.85         -38.7569        -67.0703         -38.7568        -67.0702       -0.0519993         137.058
0.68                    -10.8623         129.644         -38.6497        -69.6558         -38.6496        -69.6557       -0.0527725         136.954
0.681                   -11.0256         129.452         -38.5429        -72.2425         -38.5427        -72.2424       -0.0535582         136.848
0.682                    -11.188         129.272         -38.4363        -74.8306         -38.4361        -74.8304       -0.0543564         136.743
0.683                   -11.3497         129.104         -38.3301        -77.4202         -38.3298          -77.42       -0.0551672         136.637
0.684                   -11.5106         128.947         -38.2242        -80.0114         -38.2239        -80.0112       -0.0559905          136.53
0.685                   -11.6709         128.801         -38.1187        -82.6044         -38.1183        -82.6042       -0.0568262         136.422
0.686                   -11.8305         128.665         -38.0134        -85.1992         -38.0131        -85.1991       -0.0576743         136.314
0.687                   -11.9897         128.539         -37.9086        -87.7961         -37.9082        -87.7959       -0.0585346         136.205
0.688                   -12.1484         128.422         -37.8041         -90.395         -37.8037        -90.3949        -0.059407         136.096
0.689                   -12.3068         128.315            -37.7        -92.9961         -37.6995         -92.996       -0.0602913         135.986
0.69                     -12.465         128.217         -37.5962        -95.5994         -37.5957        -95.5993       -0.0611874         135.875
0.691                   -12.6231         128.128         -37.4928        -98.2051         -37.4923         -98.205        -0.062095         135.763
0.692                   -12.7813         128.048         -37.3897        -100.813         -37.3893        -100.813       -0.0630141         135.651
0.693                   -12.9395         127.978         -37.2871        -103.424         -37.2866        -103.424       -0.0639447         135.538
0.694                   -13.0979         127.919         -37.1848        -106.037         -37.1843        -106.037       -0.0648868         135.424
0.695                   -13.2567         127.869         -37.0829        -108.652         -37.0824        -108.652       -0.0658409          135.31
0.696                   -13.4159         127.831         -36.9813         -111.27         -36.9808         -111.27       -0.0668075         135.194
0.697                   -13.5756         127.805         -36.8802        -113.891         -36.8796        -113.891        -0.067788         135.078