! TOUCHSTONE file generated by CST MICROWAVE STUDIO
! Date and time: Fri Oct  2 19:16:04 2020
! Project name: Scenario_1_Free_Space_out_of_line.cst
! Parameters = {Lambda=346.42; Step_1=17.321; dy1=-224.613; dx1=866; L_HA=400; MT=2.54; Rad_Dielectric=30; Rad_Lower=7.3; Rad_Upper=30; a_HA=580; a_WG=246; b_HA=500; b_WG=121; c_HA=0; c_WG=187; d_feed=85; h_feed=15; h_lower=18; h_upper=40}
! Header version: 2018
! Port assignment regex: !\s*Touchstone port\s*([0-9]+)\s*=\s*(CST MWS port|CST DS port)\s*([0-9]+|Zmin|Zmax)\s*\(\"(.*)\"\)(\s*mode\s*([0-9]+))?.*
! Touchstone port assignment:
! Touchstone port 1 = CST MWS port 1 ("")
! Touchstone port 2 = CST MWS port 2 ("")
# GHz S DB R 50
0.5                    -0.148376        -122.579         -64.3135         138.826         -64.3135         138.826      -0.00663602         151.122
0.501                  -0.153558        -123.018         -64.1161         136.679         -64.1161         136.679      -0.00669446         151.056
0.502                  -0.158903        -123.459         -63.9184          134.53         -63.9184          134.53      -0.00675338         150.991
0.503                  -0.164414        -123.902         -63.7204         132.379         -63.7204         132.379      -0.00681281         150.925
0.504                  -0.170097        -124.347          -63.522         130.225          -63.522         130.225      -0.00687279          150.86
0.505                  -0.175958        -124.795         -63.3234         128.068         -63.3234         128.068      -0.00693336         150.794
0.506                  -0.182002        -125.245         -63.1245         125.908         -63.1245         125.908      -0.00699455         150.728
0.507                  -0.188235        -125.697         -62.9255         123.744         -62.9255         123.744      -0.00705641         150.663
0.508                  -0.194661        -126.152         -62.7264         121.576         -62.7264         121.576      -0.00711897         150.597
0.509                  -0.201289        -126.609         -62.5272         119.404         -62.5272         119.404      -0.00718229         150.531
0.51                   -0.208122        -127.068         -62.3279         117.228         -62.3279         117.228      -0.00724642         150.465
0.511                  -0.215168         -127.53         -62.1286         115.047         -62.1286         115.047       -0.0073114         150.398
0.512                  -0.222434        -127.994         -61.9294         112.861         -61.9294         112.861      -0.00737728         150.332
0.513                  -0.229924        -128.461         -61.7303          110.67         -61.7303          110.67      -0.00744412         150.266
0.514                  -0.237647        -128.929         -61.5313         108.473         -61.5313         108.473      -0.00751197         150.199
0.515                  -0.245609        -129.401         -61.3324          106.27         -61.3324          106.27      -0.00758088         150.133
0.516                  -0.253817        -129.875         -61.1338         104.062         -61.1338         104.062      -0.00765091         150.066
0.517                  -0.262278        -130.351         -60.9354         101.848         -60.9354         101.848      -0.00772212             150
0.518                  -0.270998         -130.83         -60.7372         99.6267         -60.7372         99.6267      -0.00779456         149.933
0.519                  -0.279986        -131.311         -60.5394         97.3995         -60.5394         97.3995      -0.00786828         149.866
0.52                   -0.289249        -131.794          -60.342         95.1656          -60.342         95.1656      -0.00794334         149.799
0.521                  -0.298793         -132.28         -60.1449         92.9249         -60.1449         92.9249      -0.00801979         149.732
0.522                  -0.308627        -132.769         -59.9483         90.6774         -59.9483         90.6774      -0.00809767         149.665
0.523                  -0.318757        -133.259         -59.7522         88.4228         -59.7522         88.4228      -0.00817704         149.598
0.524                  -0.329192        -133.753         -59.5566         86.1611         -59.5566         86.1611      -0.00825794          149.53
0.525                  -0.339938        -134.248         -59.3615         83.8922         -59.3615         83.8922       -0.0083404         149.463
0.526                  -0.351004        -134.746         -59.1671          81.616         -59.1671          81.616      -0.00842446         149.396
0.527                  -0.362397        -135.247         -58.9732         79.3325         -58.9732         79.3325      -0.00851016         149.328
0.528                  -0.374123         -135.75         -58.7801         77.0416         -58.7801         77.0416      -0.00859751          149.26
0.529                  -0.386191        -136.255         -58.5876         74.7434         -58.5876         74.7434      -0.00868655         149.193
0.53                   -0.398607        -136.762         -58.3959         72.4377         -58.3959         72.4377      -0.00877727         149.125
0.531                  -0.411378        -137.272         -58.2049         70.1247         -58.2049         70.1247       -0.0088697         149.057
0.532                  -0.424512        -137.784         -58.0148         67.8043         -58.0148         67.8043      -0.00896383         148.989
0.533                  -0.438014        -138.299         -57.8255         65.4766         -57.8255         65.4766      -0.00905966         148.921
0.534                  -0.451892        -138.815         -57.6371         63.1416         -57.6371         63.1416      -0.00915718         148.852
0.535                   -0.46615        -139.334         -57.4496         60.7995         -57.4496         60.7995      -0.00925637         148.784
0.536                  -0.480795        -139.855          -57.263         58.4502          -57.263         58.4502      -0.00935722         148.715
0.537                  -0.495833        -140.378         -57.0774          56.094         -57.0774          56.094      -0.00945969         148.647
0.538                  -0.511267        -140.903         -56.8929          53.731         -56.8929          53.731      -0.00956375         148.578
0.539                  -0.527103        -141.431         -56.7093         51.3612         -56.7093         51.3612      -0.00966938          148.51
0.54                   -0.543344         -141.96         -56.5268         48.9848         -56.5268         48.9848      -0.00977652         148.441
0.541                  -0.559995        -142.491         -56.3454          46.602         -56.3454          46.602      -0.00988514         148.372
0.542                  -0.577058        -143.024         -56.1652          44.213         -56.1652          44.213      -0.00999518         148.303
0.543                  -0.594534        -143.559          -55.986          41.818          -55.986          41.818       -0.0101066         148.234
0.544                  -0.612427        -144.096          -55.808         39.4171          -55.808         39.4171       -0.0102193         148.164
0.545                  -0.630738        -144.635         -55.6312         37.0106         -55.6312         37.0106       -0.0103334         148.095
0.546                  -0.649466        -145.175         -55.4556         34.5987         -55.4556         34.5987       -0.0104486         148.025
0.547                  -0.668611        -145.717         -55.2812         32.1816         -55.2812         32.1816       -0.0105651         147.956
0.548                  -0.688174        -146.261          -55.108         29.7596          -55.108         29.7596       -0.0106826         147.886
0.549                  -0.708151        -146.806          -54.936         27.3329          -54.936         27.3329       -0.0108012         147.816
0.55                   -0.728541        -147.353         -54.7653         24.9018         -54.7653         24.9018       -0.0109209         147.747
0.551                   -0.74934        -147.901         -54.5958         22.4666         -54.5958         22.4666       -0.0110416         147.677
0.552                  -0.770546        -148.451         -54.4276         20.0274         -54.4276         20.0274       -0.0111632         147.606
0.553                  -0.792152        -149.003         -54.2606         17.5847         -54.2606         17.5847       -0.0112857         147.536
0.554                  -0.814156        -149.556         -54.0949         15.1386         -54.0949         15.1386       -0.0114091         147.466
0.555                   -0.83655         -150.11         -53.9305         12.6895         -53.9305         12.6895       -0.0115334         147.395
0.556                  -0.859329        -150.666         -53.7672         10.2375         -53.7672         10.2375       -0.0116585         147.325
0.557                  -0.882485        -151.223         -53.6053         7.78311         -53.6053         7.78311       -0.0117845         147.254
0.558                  -0.906012        -151.782         -53.4445         5.32644         -53.4445         5.32644       -0.0119112         147.183
0.559                  -0.929902        -152.342          -53.285          2.8678          -53.285          2.8678       -0.0120388         147.112
0.56                   -0.954148        -152.903         -53.1267        0.407472         -53.1267        0.407472       -0.0121672         147.041
0.561                   -0.97874        -153.466         -52.9696        -2.05429         -52.9696         -2.0543       -0.0122964          146.97
0.562                   -1.00367        -154.031         -52.8137        -4.51724         -52.8137        -4.51724       -0.0124264         146.899
0.563                   -1.02893        -154.596         -52.6589        -6.98111         -52.6589        -6.98111       -0.0125573         146.827
0.564                   -1.05452        -155.164         -52.5053        -9.44567         -52.5053        -9.44567        -0.012689         146.756
0.565                   -1.08042        -155.733         -52.3527        -11.9107         -52.3527        -11.9107       -0.0128216         146.684
0.566                   -1.10663        -156.304         -52.2013        -14.3759         -52.2013        -14.3759       -0.0129552         146.612
0.567                   -1.13314        -156.876         -52.0509        -16.8412         -52.0509        -16.8412       -0.0130897          146.54
0.568                   -1.15994         -157.45         -51.9016        -19.3062         -51.9016        -19.3062       -0.0132252         146.468
0.569                   -1.18704        -158.027         -51.7532        -21.7709         -51.7532        -21.7709       -0.0133617         146.396
0.57                    -1.21441        -158.605         -51.6059         -24.235         -51.6059         -24.235       -0.0134993         146.323
0.571                   -1.24207        -159.185         -51.4595        -26.6984         -51.4595        -26.6984       -0.0136381         146.251
0.572                   -1.27001        -159.767          -51.314         -29.161          -51.314         -29.161       -0.0137781         146.178
0.573                   -1.29822        -160.352         -51.1693        -31.6224         -51.1693        -31.6224       -0.0139194         146.105
0.574                   -1.32672         -160.94         -51.0256        -34.0828         -51.0256        -34.0828        -0.014062         146.032
0.575                   -1.35549         -161.53         -50.8826        -36.5419         -50.8826        -36.5419        -0.014206         145.959
0.576                   -1.38454        -162.122         -50.7404        -38.9996         -50.7404        -38.9996       -0.0143516         145.886
0.577                   -1.41388        -162.718          -50.599        -41.4559          -50.599        -41.4559       -0.0144986         145.812
0.578                   -1.44352        -163.316         -50.4583        -43.9107         -50.4583        -43.9107       -0.0146474         145.739
0.579                   -1.47346        -163.918         -50.3182        -46.3639         -50.3182        -46.3639       -0.0147979         145.665
0.58                    -1.50371        -164.523         -50.1788        -48.8154         -50.1788        -48.8154       -0.0149502         145.591
0.581                   -1.53429        -165.131           -50.04        -51.2654           -50.04        -51.2654       -0.0151044         145.517
0.582                   -1.56522        -165.744         -49.9018        -53.7137         -49.9018        -53.7137       -0.0152606         145.443
0.583                   -1.59649        -166.359         -49.7641        -56.1603         -49.7641        -56.1603        -0.015419         145.368
0.584                   -1.62815        -166.979          -49.627        -58.6053          -49.627        -58.6053       -0.0155795         145.293
0.585                    -1.6602        -167.603         -49.4903        -61.0487         -49.4903        -61.0487       -0.0157424         145.219
0.586                   -1.69268        -168.231          -49.354        -63.4905          -49.354        -63.4905       -0.0159076         145.144
0.587                    -1.7256        -168.864         -49.2182        -65.9307         -49.2182        -65.9307       -0.0160754         145.069
0.588                   -1.75899        -169.501         -49.0828        -68.3695         -49.0828        -68.3695       -0.0162458         144.993
0.589                   -1.79288        -170.142         -48.9477         -70.807         -48.9477         -70.807       -0.0164189         144.918
0.59                     -1.8273        -170.789          -48.813        -73.2431          -48.813        -73.2431       -0.0165949         144.842
0.591                   -1.86229         -171.44         -48.6786        -75.6779         -48.6786        -75.6779       -0.0167738         144.766
0.592                   -1.89788        -172.096         -48.5444        -78.1117         -48.5444        -78.1117       -0.0169558          144.69
0.593                   -1.93411        -172.757         -48.4106        -80.5445         -48.4106        -80.5445       -0.0171409         144.614
0.594                     -1.971        -173.423         -48.2769        -82.9764         -48.2769        -82.9764       -0.0173293         144.538
0.595                   -2.00861        -174.095         -48.1436        -85.4075         -48.1436        -85.4075       -0.0175211         144.461
0.596                   -2.04698        -174.771         -48.0104        -87.8381         -48.0104        -87.8381       -0.0177163         144.385
0.597                   -2.08614        -175.453         -47.8774        -90.2681         -47.8774        -90.2681       -0.0179151         144.308
0.598                   -2.12614        -176.141         -47.7446        -92.6979         -47.7446        -92.6979       -0.0181175          144.23
0.599                   -2.16703        -176.833          -47.612        -95.1274          -47.612        -95.1274       -0.0183238         144.153
0.6                     -2.20885        -177.531         -47.4796         -97.557         -47.4796         -97.557       -0.0185339         144.076
0.601                   -2.25165        -178.234         -47.3473        -99.9867         -47.3473        -99.9867       -0.0187479         143.998
0.602                   -2.29547        -178.943         -47.2152        -102.417         -47.2152        -102.417        -0.018966          143.92
0.603                   -2.34037        -179.656         -47.0832        -104.847         -47.0832        -104.847       -0.0191881         143.842
0.604                   -2.38639         179.625         -46.9514        -107.278         -46.9514        -107.278       -0.0194145         143.764
0.605                   -2.43359         178.902         -46.8197         -109.71         -46.8197         -109.71       -0.0196451         143.685
0.606                     -2.482         178.173         -46.6882        -112.143         -46.6882        -112.143         -0.01988         143.606
0.607                   -2.53169          177.44         -46.5568        -114.577         -46.5568        -114.577       -0.0201192         143.527
0.608                    -2.5827         176.702         -46.4256        -117.012         -46.4256        -117.012       -0.0203629         143.448
0.609                   -2.63507         175.959         -46.2946        -119.448         -46.2946        -119.448        -0.020611         143.369
0.61                    -2.68887         175.213         -46.1638        -121.886         -46.1638        -121.886       -0.0208636         143.289
0.611                   -2.74413         174.462         -46.0331        -124.326         -46.0331        -124.326       -0.0211206         143.209
0.612                    -2.8009         173.707         -45.9027        -126.768         -45.9027        -126.768       -0.0213822         143.129
0.613                   -2.85923         172.949         -45.7725        -129.211         -45.7725        -129.211       -0.0216483         143.049
0.614                   -2.91917         172.188         -45.6426        -131.657         -45.6426        -131.657       -0.0219189         142.969
0.615                   -2.98075         171.423         -45.5129        -134.105         -45.5129        -134.105       -0.0221941         142.888
0.616                   -3.04402         170.656         -45.3836        -136.555         -45.3836        -136.555       -0.0224737         142.807
0.617                   -3.10901         169.886         -45.2545        -139.007         -45.2545        -139.007       -0.0227579         142.726
0.618                   -3.17576         169.115         -45.1258        -141.462         -45.1258        -141.462       -0.0230464         142.645
0.619                   -3.24431         168.342         -44.9974        -143.919         -44.9974        -143.919       -0.0233395         142.563
0.62                    -3.31469         167.567         -44.8694        -146.379         -44.8694        -146.379       -0.0236369         142.481
0.621                   -3.38693         166.792         -44.7419        -148.841         -44.7419        -148.841       -0.0239386         142.399
0.622                   -3.46104         166.016         -44.6148        -151.306         -44.6148        -151.306       -0.0242447         142.317
0.623                   -3.53706         165.241         -44.4881        -153.773         -44.4881        -153.773        -0.024555         142.234
0.624                   -3.61499         164.465         -44.3619        -156.243         -44.3619        -156.243       -0.0248696         142.151
0.625                   -3.69486         163.691         -44.2363        -158.716         -44.2363        -158.716       -0.0251883         142.068
0.626                   -3.77668         162.918         -44.1112        -161.191         -44.1112        -161.191       -0.0255112         141.985
0.627                   -3.86044         162.147         -43.9867        -163.668         -43.9867        -163.668       -0.0258381         141.902
0.628                   -3.94614         161.378         -43.8628        -166.148         -43.8628        -166.148       -0.0261691         141.818
0.629                    -4.0338         160.612         -43.7396        -168.629         -43.7396        -168.629       -0.0265042         141.734
0.63                    -4.12338          159.85          -43.617        -171.113          -43.617        -171.113       -0.0268432         141.649
0.631                   -4.21489         159.091         -43.4951        -173.599         -43.4951        -173.599       -0.0271862         141.565
0.632                    -4.3083         158.336         -43.3739        -176.087         -43.3739        -176.087       -0.0275331          141.48
0.633                   -4.40359         157.587         -43.2534        -178.576         -43.2534        -178.576        -0.027884         141.394
0.634                   -4.50073         156.842         -43.1336         178.934         -43.1336         178.934       -0.0282389         141.309
0.635                   -4.59967         156.103         -43.0146         176.442         -43.0146         176.442       -0.0285977         141.223
0.636                    -4.7004          155.37         -42.8964         173.949         -42.8964         173.949       -0.0289606         141.137
0.637                   -4.80286         154.644          -42.779         171.455          -42.779         171.455       -0.0293275         141.051
0.638                     -4.907         153.924         -42.6623         168.961         -42.6623         168.961       -0.0296985         140.964
0.639                   -5.01277         153.212         -42.5465         166.466         -42.5465         166.466       -0.0300738         140.877
0.64                    -5.12011         152.507         -42.4314         163.971         -42.4314         163.971       -0.0304533         140.789
0.641                   -5.22897          151.81         -42.3171         161.477         -42.3171         161.477       -0.0308372         140.702
0.642                   -5.33929         151.121         -42.2037         158.982         -42.2037         158.982       -0.0312256         140.614
0.643                   -5.45098         150.441          -42.091         156.489          -42.091         156.489       -0.0316186         140.526
0.644                     -5.564         149.768         -41.9791         153.996         -41.9791         153.996       -0.0320164         140.437
0.645                   -5.67827         149.105         -41.8679         151.504         -41.8679         151.504       -0.0324192         140.348
0.646                   -5.79372          148.45         -41.7576         149.013         -41.7576         149.013       -0.0328272         140.258
0.647                   -5.91027         147.804         -41.6479         146.524         -41.6479         146.524       -0.0332405         140.169
0.648                   -6.02787         147.167         -41.5389         144.037         -41.5389         144.037       -0.0336593         140.079
0.649                   -6.14644         146.538         -41.4306         141.551         -41.4306         141.551        -0.034084         139.988
0.65                    -6.26591         145.918          -41.323         139.068          -41.323         139.068       -0.0345148         139.897
0.651                   -6.38622         145.307          -41.216         136.587          -41.216         136.587       -0.0349519         139.806
0.652                   -6.50731         144.704         -41.1095         134.108         -41.1095         134.108       -0.0353956         139.715
0.653                   -6.62913         144.108         -41.0036         131.632         -41.0036         131.632       -0.0358463         139.623
0.654                   -6.75162         143.521         -40.8982         129.159         -40.8982         129.159       -0.0363042          139.53
0.655                   -6.87473         142.941         -40.7933         126.688         -40.7933         126.688       -0.0367697         139.437
0.656                   -6.99844         142.368         -40.6889         124.221         -40.6889         124.221       -0.0372431         139.344
0.657                    -7.1227         141.802         -40.5848         121.756         -40.5848         121.756       -0.0377249          139.25
0.658                   -7.24749         141.242         -40.4811         119.295         -40.4811         119.295       -0.0382153         139.156
0.659                    -7.3728         140.688         -40.3776         116.836         -40.3776         116.836       -0.0387149         139.062
0.66                    -7.49861          140.14         -40.2745          114.38         -40.2745          114.38       -0.0392239         138.967
0.661                   -7.62494         139.596         -40.1716         111.927         -40.1716         111.927       -0.0397429         138.871
0.662                   -7.75179         139.057         -40.0688         109.478         -40.0688         109.478       -0.0402723         138.776
0.663                   -7.87919         138.522         -39.9662         107.031         -39.9662         107.031       -0.0408124         138.679
0.664                   -8.00717          137.99         -39.8637         104.586         -39.8637         104.586       -0.0413639         138.583
0.665                   -8.13577         137.461         -39.7613         102.145         -39.7613         102.145       -0.0419271         138.485
0.666                   -8.26505         136.935         -39.6589         99.7054         -39.6589         99.7054       -0.0425026         138.388
0.667                   -8.39507         136.411         -39.5566         97.2686         -39.5566         97.2686       -0.0430908         138.289
0.668                   -8.52591         135.889         -39.4542         94.8339         -39.4542         94.8339       -0.0436923         138.191
0.669                   -8.65766         135.368         -39.3517         92.4012         -39.3517         92.4012       -0.0443075         138.091
0.67                    -8.79041         134.848         -39.2491         89.9702         -39.2491         89.9702       -0.0449371         137.992
0.671                   -8.92427         134.329         -39.1465         87.5409         -39.1465         87.5409       -0.0455815         137.891
0.672                   -9.05936          133.81         -39.0437         85.1129         -39.0437         85.1129       -0.0462413         137.791
0.673                    -9.1958         133.292         -38.9407         82.6861         -38.9407         82.6861        -0.046917         137.689
0.674                   -9.33375         132.774         -38.8376         80.2602         -38.8376         80.2602       -0.0476093         137.587
0.675                   -9.47334         132.256         -38.7343         77.8349         -38.7343         77.8349       -0.0483186         137.485
0.676                   -9.61473         131.738         -38.6308         75.4101         -38.6308         75.4101       -0.0490455         137.382
0.677                   -9.75808         131.221         -38.5271         72.9855         -38.5271         72.9855       -0.0497906         137.279
0.678                   -9.90357         130.704         -38.4233         70.5608         -38.4233         70.5608       -0.0505545         137.175
0.679                   -10.0514         130.189         -38.3192         68.1358         -38.3192         68.1358       -0.0513378          137.07
0.68                    -10.2017         129.674         -38.2149         65.7103         -38.2149         65.7103        -0.052141         136.965
0.681                   -10.3547         129.162         -38.1105          63.284         -38.1105          63.284       -0.0529647         136.859
0.682                   -10.5106         128.653         -38.0059         60.8567         -38.0059         60.8567       -0.0538094         136.752
0.683                   -10.6696         128.147          -37.901         58.4282          -37.901         58.4282       -0.0546758         136.645
0.684                   -10.8319         127.646         -37.7961         55.9982         -37.7961         55.9982       -0.0555644         136.538
0.685                   -10.9977          127.15          -37.691         53.5666          -37.691         53.5666       -0.0564757         136.429
0.686                   -11.1672         126.661         -37.5858         51.1332         -37.5858         51.1332       -0.0574103         136.321
0.687                   -11.3407         126.181         -37.4805         48.6978         -37.4805         48.6978       -0.0583688         136.211
0.688                   -11.5183          125.71         -37.3751         46.2603         -37.3751         46.2603       -0.0593516         136.101
0.689                   -11.7003         125.252         -37.2696         43.8204         -37.2696         43.8204       -0.0603593          135.99
0.69                    -11.8868         124.807         -37.1642         41.3781         -37.1642         41.3781       -0.0613924         135.878
0.691                   -12.0781         124.379         -37.0587         38.9332         -37.0587         38.9332       -0.0624513         135.766
0.692                   -12.2743          123.97         -36.9533         36.4857         -36.9533         36.4857       -0.0635367         135.653
0.693                   -12.4756         123.582          -36.848         34.0354          -36.848         34.0354       -0.0646488          135.54
0.694                   -12.6822         123.218         -36.7427         31.5824         -36.7427         31.5824       -0.0657881         135.426
0.695                   -12.8942         122.883         -36.6376         29.1265         -36.6376         29.1265       -0.0669552         135.311
0.696                   -13.1118         122.579         -36.5326         26.6677         -36.5326         26.6677       -0.0681503         135.195
0.697                    -13.335         122.312         -36.4278         24.2061         -36.4278         24.2061       -0.0693739         135.079