! TOUCHSTONE file generated by CST MICROWAVE STUDIO
! Date and time: Fri Oct  2 17:14:57 2020
! Project name: Scenario_1_Free_Space_out_of_line.cst
! Parameters = {Lambda=346.42; Step_1=17.321; dy1=-276.636; dx1=173; L_HA=400; MT=2.54; Rad_Dielectric=30; Rad_Lower=7.3; Rad_Upper=30; a_HA=580; a_WG=246; b_HA=500; b_WG=121; c_HA=0; c_WG=187; d_feed=85; h_feed=15; h_lower=18; h_upper=40}
! Header version: 2018
! Port assignment regex: !\s*Touchstone port\s*([0-9]+)\s*=\s*(CST MWS port|CST DS port)\s*([0-9]+|Zmin|Zmax)\s*\(\"(.*)\"\)(\s*mode\s*([0-9]+))?.*
! Touchstone port assignment:
! Touchstone port 1 = CST MWS port 1 ("")
! Touchstone port 2 = CST MWS port 2 ("")
# GHz S DB R 50
0.5                    -0.148255        -122.725         -61.4141         140.997         -61.3967         140.742      -0.00636475         151.145
0.501                  -0.153555        -123.169         -61.2474         139.419         -61.2348         139.214      -0.00641373         151.079
0.502                  -0.159047        -123.615           -61.08         137.847         -61.0723         137.689       -0.0064635         151.014
0.503                  -0.164734        -124.063          -60.912         136.282         -60.9091         136.168      -0.00651408         150.948
0.504                   -0.17062        -124.513         -60.7436         134.722         -60.7454         134.649      -0.00656546         150.883
0.505                  -0.176709        -124.965         -60.5747         133.167         -60.5811         133.132      -0.00661766         150.817
0.506                  -0.183003        -125.419         -60.4054         131.617         -60.4163         131.618      -0.00667068         150.751
0.507                  -0.189506        -125.875         -60.2358         130.073         -60.2511         130.107      -0.00672453         150.686
0.508                  -0.196223        -126.334         -60.0659         128.533         -60.0854         128.598      -0.00677922          150.62
0.509                  -0.203155        -126.794         -59.8958         126.997         -59.9194          127.09      -0.00683475         150.554
0.51                   -0.210308        -127.257         -59.7255         125.465         -59.7531         125.585      -0.00689114         150.488
0.511                  -0.217684        -127.721          -59.555         123.938         -59.5864         124.081      -0.00694839         150.421
0.512                  -0.225288        -128.188         -59.3844         122.413         -59.4195         122.578       -0.0070065         150.355
0.513                  -0.233123        -128.657         -59.2137         120.892         -59.2523         121.077      -0.00706549         150.289
0.514                  -0.241192        -129.128          -59.043         119.374          -59.085         119.577      -0.00712537         150.222
0.515                  -0.249501        -129.602         -58.8723         117.859         -58.9175         118.077      -0.00718613         150.156
0.516                  -0.258052        -130.077         -58.7017         116.346         -58.7498         116.579       -0.0072478         150.089
0.517                  -0.266849        -130.555         -58.5311         114.836         -58.5821         115.081      -0.00731039         150.023
0.518                  -0.275897        -131.034         -58.3607         113.327         -58.4142         113.584      -0.00737389         149.956
0.519                  -0.285199        -131.516         -58.1903          111.82         -58.2464         112.087      -0.00743832         149.889
0.52                   -0.294759            -132         -58.0202         110.314         -58.0785          110.59      -0.00750369         149.822
0.521                  -0.304582        -132.487         -57.8502          108.81         -57.9107         109.093      -0.00757001         149.755
0.522                  -0.314671        -132.975         -57.6805         107.307         -57.7429         107.596      -0.00763728         149.688
0.523                  -0.325031        -133.466          -57.511         105.805         -57.5751         106.098      -0.00770553         149.621
0.524                  -0.335666        -133.959         -57.3418         104.303         -57.4075           104.6      -0.00777476         149.554
0.525                  -0.346579        -134.454         -57.1729         102.801           -57.24         103.101      -0.00784497         149.486
0.526                  -0.357776        -134.951         -57.0043           101.3         -57.0727         101.601      -0.00791619         149.419
0.527                   -0.36926        -135.451         -56.8361         99.7985         -56.9055         100.101      -0.00798842         149.351
0.528                  -0.381036        -135.953         -56.6683         98.2969         -56.7386         98.5992      -0.00806167         149.283
0.529                  -0.393108        -136.457         -56.5008         96.7948         -56.5718         97.0964      -0.00813596         149.216
0.53                    -0.40548        -136.963         -56.3338         95.2921         -56.4053         95.5923      -0.00821129         149.148
0.531                  -0.418157        -137.471         -56.1672         93.7887         -56.2391         94.0867      -0.00828769          149.08
0.532                  -0.431144        -137.982          -56.001         92.2843         -56.0732         92.5795      -0.00836516         149.012
0.533                  -0.444444        -138.495         -55.8354         90.7788         -55.9076         91.0706      -0.00844371         148.944
0.534                  -0.458063         -139.01         -55.6702         89.2721         -55.7424           89.56      -0.00852337         148.875
0.535                  -0.472005        -139.528         -55.5055          87.764         -55.5775         88.0475      -0.00860413         148.807
0.536                  -0.486274        -140.048         -55.3414         86.2543          -55.413         86.5329      -0.00868602         148.739
0.537                  -0.500876         -140.57         -55.1778          84.743         -55.2489         85.0164      -0.00876906          148.67
0.538                  -0.515814        -141.094         -55.0147           83.23         -55.0853         83.4976      -0.00885324         148.601
0.539                  -0.531094         -141.62         -54.8523          81.715         -54.9221         81.9767       -0.0089386         148.533
0.54                   -0.546721        -142.149         -54.6904         80.1981         -54.7593         80.4534      -0.00902514         148.464
0.541                  -0.562698         -142.68         -54.5292          78.679         -54.5971         78.9277      -0.00911289         148.395
0.542                  -0.579032        -143.214         -54.3685         77.1578         -54.4353         77.3997      -0.00920185         148.326
0.543                  -0.595727        -143.749         -54.2086         75.6343         -54.2741         75.8691      -0.00929205         148.256
0.544                  -0.612788        -144.287         -54.0492         74.1085         -54.1134          74.336      -0.00938349         148.187
0.545                  -0.630219        -144.827         -53.8905         72.5802         -53.9533         72.8003      -0.00947621         148.118
0.546                  -0.648026         -145.37         -53.7325         71.0495         -53.7937         71.2619      -0.00957021         148.048
0.547                  -0.666215        -145.914         -53.5752         69.5163         -53.6348          69.721      -0.00966552         147.979
0.548                  -0.684789        -146.461         -53.4186         67.9804         -53.4764         68.1773      -0.00976215         147.909
0.549                  -0.703755        -147.011         -53.2627          66.442         -53.3187         66.6309      -0.00986012         147.839
0.55                   -0.723116        -147.562         -53.1075         64.9009         -53.1616         65.0818      -0.00995946         147.769
0.551                   -0.74288        -148.116         -52.9531         63.3571         -53.0052           63.53       -0.0100602         147.699
0.552                   -0.76305        -148.672         -52.7994         61.8106         -52.8494         61.9754       -0.0101623         147.629
0.553                  -0.783633        -149.231         -52.6464         60.2614         -52.6944         60.4181       -0.0102658         147.558
0.554                  -0.804633        -149.791         -52.4942         58.7094           -52.54         58.8581       -0.0103708         147.488
0.555                  -0.826056        -150.354         -52.3428         57.1547         -52.3863         57.2953       -0.0104773         147.417
0.556                  -0.847907         -150.92         -52.1921         55.5973         -52.2334         55.7299       -0.0105853         147.346
0.557                  -0.870192        -151.487         -52.0423         54.0372         -52.0812         54.1617       -0.0106947         147.276
0.558                  -0.892917        -152.057         -51.8932         52.4744         -51.9297         52.5909       -0.0108057         147.205
0.559                  -0.916087        -152.629         -51.7449         50.9088          -51.779         51.0175       -0.0109183         147.133
0.56                   -0.939707        -153.204         -51.5974         49.3407          -51.629         49.4415       -0.0110325         147.062
0.561                  -0.963785         -153.78         -51.4507         47.7698         -51.4798          47.863       -0.0111483         146.991
0.562                  -0.988324        -154.359         -51.3048         46.1964         -51.3314         46.2819       -0.0112657         146.919
0.563                   -1.01333        -154.941         -51.1598         44.6205         -51.1838         44.6984       -0.0113848         146.848
0.564                   -1.03881        -155.524         -51.0155          43.042          -51.037         43.1125       -0.0115057         146.776
0.565                   -1.06477         -156.11         -50.8721          41.461         -50.8909         41.5242       -0.0116282         146.704
0.566                   -1.09122        -156.698         -50.7294         39.8777         -50.7457         39.9337       -0.0117525         146.632
0.567                   -1.11816        -157.288         -50.5876         38.2919         -50.6013         38.3409       -0.0118786          146.56
0.568                    -1.1456        -157.881         -50.4466         36.7039         -50.4577         36.7459       -0.0120065         146.488
0.569                   -1.17354        -158.476         -50.3065         35.1136         -50.3149         35.1488       -0.0121363         146.415
0.57                    -1.20199        -159.073         -50.1671         33.5212         -50.1729         33.5497        -0.012268         146.343
0.571                   -1.23096        -159.672         -50.0285         31.9266         -50.0318         31.9487       -0.0124016          146.27
0.572                   -1.26045        -160.274         -49.8908           30.33         -49.8914         30.3457       -0.0125372         146.197
0.573                   -1.29047        -160.878         -49.7539         28.7314         -49.7519         28.7409       -0.0126748         146.124
0.574                   -1.32103        -161.484         -49.6177         27.1309         -49.6132         27.1344       -0.0128144         146.051
0.575                   -1.35213        -162.093         -49.4824         25.5286         -49.4753         25.5262       -0.0129561         145.977
0.576                   -1.38379        -162.703         -49.3478         23.9245         -49.3382         23.9164       -0.0130999         145.904
0.577                   -1.41599        -163.316          -49.214         22.3187         -49.2019         22.3051       -0.0132458          145.83
0.578                   -1.44877        -163.931          -49.081         20.7113         -49.0665         20.6923        -0.013394         145.757
0.579                   -1.48211        -164.549         -48.9488         19.1024         -48.9318         19.0782       -0.0135444         145.683
0.58                    -1.51603        -165.169         -48.8173          17.492         -48.7979         17.4628       -0.0136971         145.608
0.581                   -1.55053         -165.79         -48.6866         15.8802         -48.6648         15.8462       -0.0138522         145.534
0.582                   -1.58563        -166.415         -48.5566         14.2672         -48.5325         14.2284       -0.0140096          145.46
0.583                   -1.62133        -167.041         -48.4273         12.6528          -48.401         12.6095       -0.0141694         145.385
0.584                   -1.65763         -167.67         -48.2988         11.0373         -48.2702         10.9897       -0.0143318          145.31
0.585                   -1.69455          -168.3          -48.171         9.42069         -48.1402         9.36893       -0.0144966         145.236
0.586                   -1.73209        -168.933         -48.0438         7.80303         -48.0109          7.7473       -0.0146641          145.16
0.587                   -1.77026        -169.569         -47.9174          6.1844         -47.8823         6.12487       -0.0148342         145.085
0.588                   -1.80907        -170.206         -47.7916         4.56486         -47.7545          4.5017        -0.015007          145.01
0.589                   -1.84853        -170.846         -47.6665         2.94447         -47.6274         2.87786       -0.0151825         144.934
0.59                    -1.88864        -171.487          -47.542         1.32328          -47.501         1.25339       -0.0153609         144.858
0.591                   -1.92941        -172.131         -47.4181       -0.298636         -47.3753       -0.371639       -0.0155421         144.782
0.592                   -1.97086        -172.777         -47.2949        -1.92124         -47.2502        -1.99719       -0.0157263         144.706
0.593                   -2.01299        -173.426         -47.1723        -3.54449         -47.1258        -3.62321       -0.0159135          144.63
0.594                    -2.0558        -174.076         -47.0502        -5.16832         -47.0021        -5.24965       -0.0161037         144.553
0.595                   -2.09932        -174.729         -46.9288        -6.79271          -46.879        -6.87648       -0.0162971         144.477
0.596                   -2.14355        -175.384         -46.8078         -8.4176         -46.7565        -8.50367       -0.0164937           144.4
0.597                   -2.18849        -176.041         -46.6875         -10.043         -46.6347        -10.1312       -0.0166935         144.323
0.598                   -2.23416          -176.7         -46.5676        -11.6688         -46.5134         -11.759       -0.0168968         144.245
0.599                   -2.28057        -177.361         -46.4483         -13.295         -46.3927         -13.387       -0.0171034         144.168
0.6                     -2.32772        -178.025         -46.3294        -14.9217         -46.2726        -15.0153       -0.0173135          144.09
0.601                   -2.37563         -178.69         -46.2111        -16.5487          -46.153        -16.6439       -0.0175273         144.012
0.602                   -2.42431        -179.358         -46.0932         -18.176         -46.0339        -18.2726       -0.0177447         143.934
0.603                   -2.47377         179.973         -45.9757        -19.8038         -45.9154        -19.9016       -0.0179658         143.856
0.604                   -2.52402         179.301         -45.8587        -21.4318         -45.7974        -21.5307       -0.0181908         143.777
0.605                   -2.57507         178.627         -45.7421        -23.0602         -45.6798        -23.1601       -0.0184197         143.699
0.606                   -2.62693         177.951         -45.6259         -24.689         -45.5628        -24.7897       -0.0186526          143.62
0.607                   -2.67962         177.273         -45.5102        -26.3181         -45.4462        -26.4195       -0.0188897         143.541
0.608                   -2.73314         176.593         -45.3947        -27.9475           -45.33        -28.0496       -0.0191309         143.461
0.609                   -2.78752         175.911         -45.2797        -29.5773         -45.2143        -29.6799       -0.0193764         143.382
0.61                    -2.84275         175.227          -45.165        -31.2076          -45.099        -31.3105       -0.0196263         143.302
0.611                   -2.89886         174.541         -45.0506        -32.8382         -44.9842        -32.9414       -0.0198808         143.222
0.612                   -2.95586         173.853         -44.9365        -34.4692         -44.8697        -34.5726       -0.0201398         143.142
0.613                   -3.01376         173.163         -44.8228        -36.1008         -44.7556        -36.2041       -0.0204035         143.061
0.614                   -3.07257          172.47         -44.7094        -37.7328         -44.6418        -37.8361       -0.0206721         142.981
0.615                   -3.13231         171.777         -44.5962        -39.3653         -44.5285        -39.4685       -0.0209456           142.9
0.616                     -3.193         171.081         -44.4834        -40.9984         -44.4154        -41.1014       -0.0212241         142.819
0.617                   -3.25465         170.383         -44.3708        -42.6322         -44.3027        -42.7348       -0.0215078         142.737
0.618                   -3.31727         169.683         -44.2584        -44.2666         -44.1904        -44.3688       -0.0217968         142.656
0.619                   -3.38088         168.982         -44.1463        -45.9017         -44.0783        -46.0034       -0.0220911         142.574
0.62                    -3.44551         168.278         -44.0345        -47.5375         -43.9666        -47.6387        -0.022391         142.492
0.621                   -3.51115         167.573         -43.9229        -49.1742         -43.8552        -49.2747       -0.0226965         142.409
0.622                   -3.57784         166.866         -43.8115        -50.8117          -43.744        -50.9116       -0.0230078         142.327
0.623                   -3.64558         166.157         -43.7003        -52.4502         -43.6332        -52.5493        -0.023325         142.244
0.624                    -3.7144         165.447         -43.5893        -54.0897         -43.5226        -54.1879       -0.0236482          142.16
0.625                   -3.78432         164.735         -43.4786        -55.7302         -43.4123        -55.8275       -0.0239775         142.077
0.626                   -3.85535         164.021         -43.3681        -57.3718         -43.3022        -57.4682       -0.0243132         141.993
0.627                   -3.92752         163.306         -43.2577        -59.0146         -43.1925          -59.11       -0.0246552         141.909
0.628                   -4.00085         162.589         -43.1476        -60.6587          -43.083        -60.7529       -0.0250039         141.825
0.629                   -4.07534         161.871         -43.0377        -62.3041         -42.9737        -62.3972       -0.0253592         141.741
0.63                    -4.15104         161.151          -42.928        -63.9508         -42.8647        -64.0428       -0.0257213         141.656
0.631                   -4.22795         160.429         -42.8184        -65.5991          -42.756        -65.6898       -0.0260905         141.571
0.632                   -4.30611         159.707         -42.7091        -67.2488         -42.6475        -67.3382       -0.0264667         141.486
0.633                   -4.38553         158.983            -42.6        -68.9001         -42.5393        -68.9882       -0.0268502           141.4
0.634                   -4.46624         158.257         -42.4911        -70.5531         -42.4314        -70.6399       -0.0272411         141.314
0.635                   -4.54827         157.531         -42.3824        -72.2079         -42.3237        -72.2932       -0.0276396         141.228
0.636                   -4.63163         156.803         -42.2739        -73.8644         -42.2163        -73.9482       -0.0280457         141.141
0.637                   -4.71636         156.075         -42.1657        -75.5228         -42.1091        -75.6051       -0.0284597         141.054
0.638                   -4.80248         155.345         -42.0576        -77.1831         -42.0022        -77.2639       -0.0288816         140.967
0.639                   -4.89002         154.615         -41.9498        -78.8454         -41.8956        -78.9246       -0.0293116          140.88
0.64                      -4.979         153.883         -41.8423        -80.5098         -41.7893        -80.5873       -0.0297499         140.792
0.641                   -5.06946         153.151          -41.735        -82.1762         -41.6833        -82.2521       -0.0301965         140.704
0.642                   -5.16143         152.419          -41.628        -83.8449         -41.5776         -83.919       -0.0306517         140.616
0.643                   -5.25493         151.685         -41.5212        -85.5157         -41.4721        -85.5881       -0.0311155         140.527
0.644                      -5.35         150.952         -41.4147        -87.1889          -41.367        -87.2594       -0.0315881         140.438
0.645                   -5.44668         150.218         -41.3086        -88.8643         -41.2623         -88.933       -0.0320696         140.349
0.646                   -5.54498         149.484         -41.2027        -90.5421         -41.1579        -90.6089       -0.0325602         140.259
0.647                   -5.64495          148.75         -41.0972        -92.2223         -41.0538        -92.2872         -0.03306         140.169
0.648                   -5.74662         148.016          -40.992        -93.9049         -40.9501        -93.9678        -0.033569         140.079
0.649                   -5.85004         147.283         -40.8872          -95.59         -40.8468        -95.6509       -0.0340874         139.988
0.65                    -5.95522          146.55         -40.7827        -97.2776         -40.7439        -97.3363       -0.0346154         139.897
0.651                   -6.06222         145.817         -40.6786        -98.9677         -40.6413        -99.0243       -0.0351531         139.806
0.652                   -6.17107         145.086          -40.575         -100.66         -40.5392        -100.715       -0.0357004         139.714
0.653                   -6.28181         144.355         -40.4717        -102.355         -40.4376        -102.408       -0.0362576         139.622
0.654                   -6.39448         143.626         -40.3689        -104.053         -40.3364        -104.103       -0.0368248         139.529
0.655                   -6.50912         142.898         -40.2666        -105.753         -40.2356        -105.801        -0.037402         139.436
0.656                   -6.62578         142.171         -40.1647        -107.456         -40.1354        -107.501       -0.0379894         139.343
0.657                    -6.7445         141.447         -40.0633        -109.161         -40.0356        -109.204       -0.0385869          139.25
0.658                   -6.86531         140.725         -39.9625        -110.869         -39.9364        -110.909       -0.0391948         139.156
0.659                   -6.98828         140.005         -39.8622        -112.579         -39.8377        -112.616        -0.039813         139.061
0.66                    -7.11345         139.289         -39.7624        -114.291         -39.7396        -114.326       -0.0404417         138.966
0.661                   -7.24085         138.575         -39.6632        -116.006          -39.642        -116.038       -0.0410809         138.871
0.662                   -7.37054         137.865         -39.5647        -117.723         -39.5451        -117.752       -0.0417307         138.776
0.663                   -7.50258         137.158         -39.4667        -119.442         -39.4487        -119.469       -0.0423911          138.68
0.664                     -7.637         136.456         -39.3694        -121.163          -39.353        -121.187       -0.0430621         138.583
0.665                   -7.77387         135.759         -39.2727        -122.887         -39.2579        -122.908        -0.043744         138.486
0.666                   -7.91322         135.066         -39.1767        -124.612         -39.1635         -124.63       -0.0444365         138.389
0.667                   -8.05512         134.379         -39.0814        -126.339         -39.0697        -126.354         -0.04514         138.291
0.668                   -8.19962         133.699         -38.9868        -128.068         -38.9766         -128.08       -0.0458542         138.193
0.669                   -8.34676         133.024          -38.893        -129.799         -38.8843        -129.808       -0.0465794         138.094
0.67                    -8.49661         132.357         -38.7999        -131.531         -38.7926        -131.537       -0.0473155         137.995
0.671                   -8.64922         131.698         -38.7076        -133.265         -38.7018        -133.267       -0.0480626         137.896
0.672                   -8.80464         131.047          -38.616        -134.999         -38.6116        -134.999       -0.0488208         137.796
0.673                   -8.96292         130.405         -38.5253        -136.735         -38.5222        -136.732         -0.04959         137.695
0.674                   -9.12413         129.773         -38.4353        -138.472         -38.4336        -138.465       -0.0503702         137.594
0.675                   -9.28831         129.151         -38.3462         -140.21         -38.3458          -140.2       -0.0511617         137.493
0.676                   -9.45551          128.54         -38.2579        -141.948         -38.2588        -141.935       -0.0519643         137.391
0.677                   -9.62579         127.942         -38.1705        -143.687         -38.1726         -143.67       -0.0527781         137.288
0.678                    -9.7992         127.357         -38.0839        -145.426         -38.0872        -145.406       -0.0536033         137.185
0.679                   -9.97578         126.786         -37.9982        -147.166         -38.0027        -147.142       -0.0544398         137.082
0.68                    -10.1556         126.231         -37.9134        -148.905         -37.9189        -148.878       -0.0552877         136.978
0.681                   -10.3387         125.691         -37.8294        -150.644          -37.836        -150.614       -0.0561471         136.873
0.682                    -10.525         125.169         -37.7464        -152.382          -37.754        -152.349       -0.0570181         136.768
0.683                   -10.7147         124.666         -37.6642         -154.12         -37.6727        -154.083       -0.0579009         136.662
0.684                   -10.9078         124.183         -37.5829        -155.856         -37.5924        -155.817       -0.0587954         136.556
0.685                   -11.1043         123.721         -37.5025        -157.592         -37.5128         -157.55       -0.0597019         136.449
0.686                   -11.3042         123.282          -37.423        -159.327         -37.4341        -159.281       -0.0606204         136.341
0.687                   -11.5075         122.868         -37.3443         -161.06         -37.3562        -161.011       -0.0615511         136.233
0.688                   -11.7142          122.48         -37.2666        -162.791         -37.2792         -162.74       -0.0624942         136.124
0.689                   -11.9243          122.12         -37.1897         -164.52          -37.203        -164.466         -0.06345         136.015
0.69                    -12.1378          121.79         -37.1137        -166.247         -37.1276         -166.19       -0.0644184         135.905
0.691                   -12.3546         121.492         -37.0385        -167.972          -37.053        -167.913       -0.0653999         135.794
0.692                   -12.5747         121.229         -36.9642        -169.695         -36.9791        -169.632       -0.0663946         135.682
0.693                    -12.798         121.001         -36.8907        -171.414         -36.9061        -171.349       -0.0674029          135.57
0.694                   -13.0244         120.813          -36.818        -173.131         -36.8338        -173.064       -0.0684249         135.457
0.695                   -13.2538         120.665         -36.7461        -174.844         -36.7623        -174.775        -0.069461         135.344
0.696                    -13.486         120.562          -36.675        -176.554         -36.6915        -176.483       -0.0705116         135.229
0.697                   -13.7207         120.505         -36.6047        -178.261         -36.6214        -178.187       -0.0715769         135.114