! TOUCHSTONE file generated by CST MICROWAVE STUDIO
! Date and time: Fri Oct  2 17:14:30 2020
! Project name: Scenario_1_Free_Space_out_of_line.cst
! Parameters = {Lambda=346.42; Step_1=17.321; dy1=-311.318; dx1=173; L_HA=400; MT=2.54; Rad_Dielectric=30; Rad_Lower=7.3; Rad_Upper=30; a_HA=580; a_WG=246; b_HA=500; b_WG=121; c_HA=0; c_WG=187; d_feed=85; h_feed=15; h_lower=18; h_upper=40}
! Header version: 2018
! Port assignment regex: !\s*Touchstone port\s*([0-9]+)\s*=\s*(CST MWS port|CST DS port)\s*([0-9]+|Zmin|Zmax)\s*\(\"(.*)\"\)(\s*mode\s*([0-9]+))?.*
! Touchstone port assignment:
! Touchstone port 1 = CST MWS port 1 ("")
! Touchstone port 2 = CST MWS port 2 ("")
# GHz S DB R 50
0.5                    -0.147114        -122.682         -62.6868         132.326         -62.6868         132.326      -0.00637697           151.1
0.501                  -0.152492        -123.132         -62.5185         130.821         -62.5186         130.821      -0.00642626         151.035
0.502                  -0.158092        -123.584         -62.3497         129.317         -62.3499         129.316      -0.00647651         150.969
0.503                  -0.163916        -124.037         -62.1805         127.812         -62.1808         127.812      -0.00652773         150.904
0.504                  -0.169965        -124.492          -62.011         126.308         -62.0114         126.308      -0.00657991         150.838
0.505                  -0.176243        -124.949         -61.8413         124.804         -61.8417         124.804      -0.00663307         150.772
0.506                  -0.182752        -125.408         -61.6712           123.3         -61.6717         123.299       -0.0066872         150.707
0.507                  -0.189493        -125.869         -61.5009         121.796         -61.5015         121.795      -0.00674231         150.641
0.508                   -0.19647        -126.331         -61.3305         120.291         -61.3311          120.29       -0.0067984         150.575
0.509                  -0.203684        -126.796         -61.1599         118.785         -61.1605         118.784      -0.00685546         150.509
0.51                   -0.211139        -127.262         -60.9891         117.279         -60.9899         117.277      -0.00691352         150.442
0.511                  -0.218837         -127.73         -60.8183         115.771         -60.8191          115.77      -0.00697255         150.376
0.512                  -0.226779          -128.2         -60.6475         114.263         -60.6483         114.261      -0.00703258          150.31
0.513                  -0.234969        -128.672         -60.4766         112.753         -60.4775         112.752      -0.00709361         150.243
0.514                   -0.24341        -129.146         -60.3058         111.242         -60.3066          111.24      -0.00715563         150.177
0.515                  -0.252103        -129.622          -60.135         109.729         -60.1359         109.728      -0.00721866          150.11
0.516                  -0.261051        -130.099         -59.9642         108.215         -59.9652         108.213      -0.00728269         150.044
0.517                  -0.270257        -130.579         -59.7936         106.698         -59.7946         106.697      -0.00734773         149.977
0.518                  -0.279723         -131.06         -59.6232          105.18         -59.6242         105.178      -0.00741379          149.91
0.519                  -0.289453        -131.544         -59.4529         103.659         -59.4539         103.658      -0.00748086         149.843
0.52                   -0.299448        -132.029         -59.2828         102.137         -59.2838         102.135      -0.00754897         149.776
0.521                  -0.309712        -132.516          -59.113         100.611          -59.114          100.61       -0.0076181         149.709
0.522                  -0.320247        -133.005         -58.9434         99.0837         -58.9444         99.0818      -0.00768827         149.642
0.523                  -0.331056        -133.496         -58.7741         97.5533         -58.7751         97.5514      -0.00775948         149.575
0.524                  -0.342142         -133.99         -58.6052         96.0202         -58.6062         96.0183      -0.00783174         149.507
0.525                  -0.353507        -134.484         -58.4365         94.4842         -58.4376         94.4823      -0.00790506          149.44
0.526                  -0.365155        -134.981         -58.2683         92.9452         -58.2693         92.9434      -0.00797944         149.372
0.527                  -0.377088         -135.48         -58.1005         91.4032         -58.1015         91.4014      -0.00805489         149.305
0.528                  -0.389309        -135.981         -57.9331         89.8581         -57.9341         89.8563      -0.00813141         149.237
0.529                  -0.401822        -136.484         -57.7661         88.3098         -57.7671          88.308      -0.00820902         149.169
0.53                   -0.414629        -136.989         -57.5996         86.7581         -57.6006         86.7564      -0.00828773         149.101
0.531                  -0.427733        -137.496         -57.4337         85.2032         -57.4347         85.2015      -0.00836753         149.033
0.532                  -0.441138        -138.005         -57.2683         83.6448         -57.2692         83.6431      -0.00844845         148.965
0.533                  -0.454846        -138.515         -57.1034         82.0829         -57.1043         82.0813      -0.00853049         148.897
0.534                  -0.468861        -139.028         -56.9391         80.5175           -56.94          80.516      -0.00861365         148.829
0.535                  -0.483186        -139.543         -56.7754         78.9486         -56.7763         78.9472      -0.00869796          148.76
0.536                  -0.497824         -140.06         -56.6124         77.3761         -56.6133         77.3747      -0.00878342         148.692
0.537                  -0.512779        -140.579           -56.45            75.8         -56.4509         75.7987      -0.00887004         148.623
0.538                  -0.528053          -141.1         -56.2883         74.2203         -56.2891          74.219      -0.00895783         148.555
0.539                  -0.543651        -141.623         -56.1272         72.6369         -56.1281         72.6357      -0.00904682         148.486
0.54                   -0.559576        -142.148         -55.9669         71.0499         -55.9677         71.0487      -0.00913699         148.417
0.541                  -0.575831        -142.676         -55.8073         69.4593         -55.8081         69.4581      -0.00922839         148.348
0.542                  -0.592421        -143.205         -55.6485          67.865         -55.6493         67.8639        -0.009321         148.279
0.543                  -0.609348        -143.736         -55.4905         66.2671         -55.4912         66.2661      -0.00941486          148.21
0.544                  -0.626616         -144.27         -55.3332         64.6657         -55.3339         64.6648      -0.00950997          148.14
0.545                  -0.644229        -144.805         -55.1768         63.0607         -55.1774         63.0598      -0.00960634         148.071
0.546                  -0.662192        -145.343         -55.0212         61.4522         -55.0218         61.4514      -0.00970401         148.001
0.547                  -0.680507        -145.883         -54.8664         59.8402          -54.867         59.8394      -0.00980297         147.932
0.548                  -0.699179        -146.425         -54.7125         58.2248         -54.7131         58.2241      -0.00990326         147.862
0.549                  -0.718212        -146.969         -54.5594          56.606           -54.56         56.6054       -0.0100049         147.792
0.55                    -0.73761        -147.515         -54.4073          54.984         -54.4078         54.9834       -0.0101079         147.722
0.551                  -0.757378        -148.064          -54.256         53.3587         -54.2565         53.3582       -0.0102122         147.652
0.552                  -0.777519        -148.614         -54.1057         51.7303         -54.1062         51.7298       -0.0103179         147.581
0.553                  -0.798038        -149.167         -53.9563         50.0988         -53.9567         50.0984       -0.0104251         147.511
0.554                  -0.818939        -149.722         -53.8078         48.4643         -53.8082         48.4639       -0.0105337         147.441
0.555                  -0.840228        -150.279         -53.6602         46.8269         -53.6606         46.8266       -0.0106437          147.37
0.556                  -0.861908        -150.839         -53.5136         45.1867          -53.514         45.1864       -0.0107553         147.299
0.557                  -0.883984          -151.4          -53.368         43.5438         -53.3683         43.5435       -0.0108683         147.228
0.558                  -0.906462        -151.964         -53.2233         41.8982         -53.2236          41.898       -0.0109829         147.157
0.559                  -0.929346         -152.53         -53.0795         40.2502         -53.0798           40.25        -0.011099         147.086
0.56                   -0.952641        -153.099         -52.9368         38.5997          -52.937         38.5996       -0.0112167         147.015
0.561                  -0.976352        -153.669          -52.795          36.947         -52.7952         36.9469        -0.011336         146.944
0.562                   -1.00049        -154.242         -52.6542         35.2921         -52.6544          35.292        -0.011457         146.872
0.563                   -1.02505        -154.817         -52.5143         33.6351         -52.5145          33.635       -0.0115796         146.801
0.564                   -1.05004        -155.395         -52.3754         31.9761         -52.3756         31.9761       -0.0117039         146.729
0.565                   -1.07547        -155.975         -52.2375         30.3154         -52.2376         30.3153       -0.0118299         146.657
0.566                   -1.10134        -156.557         -52.1005         28.6528         -52.1007         28.6528       -0.0119577         146.585
0.567                   -1.12767        -157.141         -51.9645         26.9887         -51.9646         26.9887       -0.0120873         146.513
0.568                   -1.15445        -157.728         -51.8295         25.3231         -51.8296         25.3231       -0.0122187          146.44
0.569                   -1.18169        -158.317         -51.6954         23.6561         -51.6954         23.6561        -0.012352         146.368
0.57                     -1.2094        -158.909         -51.5622         21.9879         -51.5623         21.9878       -0.0124872         146.295
0.571                   -1.23758        -159.503           -51.43         20.3184           -51.43         20.3184       -0.0126243         146.223
0.572                   -1.26625        -160.099         -51.2987          18.648         -51.2987          18.648       -0.0127634          146.15
0.573                    -1.2954        -160.698         -51.1683         16.9766         -51.1683         16.9766       -0.0129045         146.077
0.574                   -1.32505        -161.299         -51.0388         15.3044         -51.0388         15.3044       -0.0130476         146.004
0.575                   -1.35521        -161.903         -50.9102         13.6315         -50.9101         13.6315       -0.0131929          145.93
0.576                   -1.38587        -162.509         -50.7824         11.9579         -50.7824         11.9579       -0.0133403         145.857
0.577                   -1.41704        -163.117         -50.6555         10.2839         -50.6555         10.2839       -0.0134899         145.783
0.578                   -1.44874        -163.728         -50.5295         8.60939         -50.5294         8.60937       -0.0136417         145.709
0.579                   -1.48098        -164.342         -50.4043         6.93456         -50.4042         6.93453       -0.0137959         145.635
0.58                    -1.51375        -164.958         -50.2799         5.25948         -50.2798         5.25944       -0.0139523         145.561
0.581                   -1.54708        -165.576         -50.1563         3.58423         -50.1562         3.58418       -0.0141112         145.487
0.582                   -1.58096        -166.197         -50.0335         1.90889         -50.0334         1.90884       -0.0142724         145.413
0.583                    -1.6154        -166.821         -49.9115         0.23353         -49.9114        0.233467       -0.0144362         145.338
0.584                   -1.65042        -167.447         -49.7902        -1.44178         -49.7901        -1.44185       -0.0146025         145.263
0.585                   -1.68602        -168.076         -49.6696        -3.11698         -49.6695        -3.11706       -0.0147714         145.188
0.586                   -1.72222        -168.707         -49.5497        -4.79201         -49.5496         -4.7921        -0.014943         145.113
0.587                   -1.75902        -169.341         -49.4306        -6.46683         -49.4304        -6.46693       -0.0151173         145.038
0.588                   -1.79643        -169.977         -49.3121        -8.14137         -49.3119        -8.14148       -0.0152944         144.963
0.589                   -1.83446        -170.616         -49.1942        -9.81561         -49.1941        -9.81573       -0.0154743         144.887
0.59                    -1.87312        -171.257          -49.077        -11.4895         -49.0769        -11.4896       -0.0156571         144.811
0.591                   -1.91243        -171.901         -48.9604         -13.163         -48.9603        -13.1632       -0.0158429         144.735
0.592                   -1.95239        -172.548         -48.8444        -14.8362         -48.8443        -14.8363       -0.0160318         144.659
0.593                   -1.99301        -173.198          -48.729        -16.5089         -48.7288         -16.509       -0.0162238         144.583
0.594                   -2.03432         -173.85         -48.6141        -18.1812          -48.614        -18.1813       -0.0164189         144.506
0.595                   -2.07631        -174.504         -48.4997         -19.853         -48.4996        -19.8532       -0.0166173          144.43
0.596                     -2.119        -175.161         -48.3859        -21.5244         -48.3858        -21.5246        -0.016819         144.353
0.597                    -2.1624        -175.821         -48.2726        -23.1954         -48.2725        -23.1955       -0.0170241         144.276
0.598                   -2.20653        -176.484         -48.1597        -24.8659         -48.1596        -24.8661       -0.0172327         144.199
0.599                   -2.25139        -177.149         -48.0473        -26.5361         -48.0472        -26.5362       -0.0174449         144.121
0.6                     -2.29701        -177.817         -47.9354        -28.2058         -47.9353         -28.206       -0.0176607         144.044
0.601                   -2.34339        -178.488         -47.8238        -29.8752         -47.8237        -29.8753       -0.0178802         143.966
0.602                   -2.39055        -179.161         -47.7127        -31.5442         -47.7126        -31.5444       -0.0181035         143.888
0.603                    -2.4385        -179.837          -47.602         -33.213         -47.6019        -33.2131       -0.0183307          143.81
0.604                   -2.48726         179.485         -47.4916        -34.8814         -47.4916        -34.8815       -0.0185618         143.731
0.605                   -2.53685         178.803         -47.3816        -36.5496         -47.3816        -36.5498        -0.018797         143.652
0.606                   -2.58727          178.12          -47.272        -38.2177         -47.2719        -38.2178       -0.0190364         143.574
0.607                   -2.63855         177.433         -47.1627        -39.8856         -47.1626        -39.8857       -0.0192799         143.495
0.608                   -2.69069         176.744         -47.0537        -41.5534         -47.0536        -41.5535       -0.0195278         143.415
0.609                   -2.74373         176.052          -46.945        -43.2212          -46.945        -43.2213       -0.0197801         143.336
0.61                    -2.79767         175.358         -46.8366        -44.8891         -46.8366        -44.8891       -0.0200368         143.256
0.611                   -2.85253         174.661         -46.7285         -46.557         -46.7285         -46.557       -0.0202982         143.176
0.612                   -2.90833         173.961         -46.6206        -48.2251         -46.6206        -48.2251       -0.0205642         143.096
0.613                   -2.96509         173.259         -46.5131        -49.8935         -46.5131        -49.8935        -0.020835         143.016
0.614                   -3.02283         172.554         -46.4057        -51.5621         -46.4057        -51.5621       -0.0211106         142.935
0.615                   -3.08156         171.847         -46.2987        -53.2312         -46.2987        -53.2311       -0.0213912         142.854
0.616                   -3.14131         171.137         -46.1918        -54.9007         -46.1919        -54.9006       -0.0216769         142.773
0.617                    -3.2021         170.424         -46.0852        -56.5707         -46.0853        -56.5706       -0.0219676         142.692
0.618                   -3.26395          169.71         -45.9789        -58.2413         -45.9789        -58.2412       -0.0222636          142.61
0.619                   -3.32687         168.992         -45.8727        -59.9126         -45.8728        -59.9125        -0.022565         142.529
0.62                     -3.3909         168.273         -45.7668        -61.5847         -45.7669        -61.5845       -0.0228717         142.447
0.621                   -3.45605         167.551         -45.6611        -63.2576         -45.6612        -63.2574        -0.023184         142.364
0.622                   -3.52234         166.827         -45.5556        -64.9314         -45.5557        -64.9312       -0.0235018         142.282
0.623                   -3.58981           166.1         -45.4504        -66.6062         -45.4504         -66.606       -0.0238253         142.199
0.624                   -3.65847         165.371         -45.3453        -68.2821         -45.3454        -68.2819       -0.0241546         142.116
0.625                   -3.72834          164.64         -45.2405        -69.9592         -45.2406        -69.9589       -0.0244898         142.033
0.626                   -3.79946         163.907         -45.1359        -71.6374          -45.136        -71.6372       -0.0248309         141.949
0.627                   -3.87185         163.172         -45.0315         -73.317         -45.0316        -73.3167        -0.025178         141.866
0.628                   -3.94554         162.435         -44.9274         -74.998         -44.9275        -74.9976       -0.0255313         141.782
0.629                   -4.02054         161.696         -44.8235        -76.6804         -44.8236          -76.68       -0.0258908         141.697
0.63                     -4.0969         160.955         -44.7199        -78.3643         -44.7199        -78.3639       -0.0262565         141.613
0.631                   -4.17464         160.212         -44.6165        -80.0498         -44.6165        -80.0494       -0.0266286         141.528
0.632                   -4.25378         159.468         -44.5133        -81.7369         -44.5134        -81.7365       -0.0270071         141.443
0.633                   -4.33435         158.722         -44.4104        -83.4257         -44.4105        -83.4253       -0.0273921         141.358
0.634                   -4.41639         157.975         -44.3078        -85.1163         -44.3079        -85.1158       -0.0277836         141.272
0.635                   -4.49993         157.226         -44.2055        -86.8086         -44.2056        -86.8082       -0.0281818         141.186
0.636                   -4.58499         156.476         -44.1035        -88.5028         -44.1036        -88.5024       -0.0285867           141.1
0.637                   -4.67161         155.725         -44.0018         -90.199         -44.0019        -90.1985       -0.0289984         141.013
0.638                   -4.75982         154.972         -43.9005         -91.897         -43.9006        -91.8965       -0.0294169         140.926
0.639                   -4.84966         154.219         -43.7994         -93.597         -43.7995        -93.5965       -0.0298422         140.839
0.64                    -4.94115         153.466         -43.6987         -95.299         -43.6988        -95.2984       -0.0302745         140.752
0.641                   -5.03433         152.711         -43.5984        -97.0029         -43.5985        -97.0024       -0.0307138         140.664
0.642                   -5.12924         151.956         -43.4985        -98.7089         -43.4986        -98.7084         -0.03116         140.576
0.643                   -5.22591         151.201          -43.399        -100.417         -43.3991        -100.416       -0.0316134         140.488
0.644                   -5.32437         150.446         -43.2999        -102.127            -43.3        -102.126       -0.0320738         140.399
0.645                   -5.42467         149.691         -43.2012        -103.839         -43.2013        -103.839       -0.0325414          140.31
0.646                   -5.52684         148.937          -43.103        -105.553         -43.1031        -105.553       -0.0330161         140.221
0.647                   -5.63092         148.183         -43.0052        -107.269         -43.0053        -107.269       -0.0334981         140.131
0.648                   -5.73694         147.429         -42.9079        -108.987          -42.908        -108.987       -0.0339873         140.041
0.649                   -5.84494         146.677         -42.8111        -110.707         -42.8112        -110.707       -0.0344838         139.951
0.65                    -5.95497         145.926         -42.7149        -112.429          -42.715        -112.429       -0.0349875          139.86
0.651                   -6.06707         145.176         -42.6192        -114.153         -42.6193        -114.153       -0.0354986         139.769
0.652                   -6.18127         144.429          -42.524        -115.879         -42.5241        -115.878        -0.036017         139.678
0.653                   -6.29761         143.683         -42.4294        -117.606         -42.4295        -117.605       -0.0365427         139.586
0.654                   -6.41613          142.94         -42.3354        -119.335         -42.3355        -119.334       -0.0370759         139.494
0.655                   -6.53689           142.2         -42.2421        -121.065         -42.2421        -121.065       -0.0376164         139.401
0.656                   -6.65991         141.462         -42.1493        -122.797         -42.1494        -122.797       -0.0381643         139.308
0.657                   -6.78524         140.729         -42.0572        -124.531         -42.0573         -124.53       -0.0387196         139.215
0.658                   -6.91292         139.999         -41.9658        -126.266         -41.9658        -126.265       -0.0392824         139.122
0.659                   -7.04299         139.273          -41.875        -128.001         -41.8751        -128.001       -0.0398527         139.028
0.66                    -7.17551         138.553         -41.7849        -129.738          -41.785        -129.738       -0.0404305         138.933
0.661                    -7.3105         137.837         -41.6956        -131.476         -41.6956        -131.476       -0.0410157         138.839
0.662                   -7.44801         137.127          -41.607        -133.215          -41.607        -133.215       -0.0416085         138.743
0.663                   -7.58808         136.423         -41.5191        -134.954         -41.5191        -134.954       -0.0422089         138.648
0.664                   -7.73076         135.726         -41.4319        -136.694         -41.4319        -136.694       -0.0428169         138.552
0.665                   -7.87609         135.036         -41.3455        -138.435         -41.3455        -138.434       -0.0434325         138.455
0.666                    -8.0241         134.354         -41.2599        -140.175         -41.2599        -140.175       -0.0440558         138.358
0.667                   -8.17484         133.681          -41.175        -141.916         -41.1751        -141.915       -0.0446868         138.261
0.668                   -8.32835         133.016          -41.091        -143.656          -41.091        -143.656       -0.0453257         138.163
0.669                   -8.48466         132.362         -41.0077        -145.396         -41.0077        -145.396       -0.0459723         138.065
0.67                    -8.64381         131.718         -40.9253        -147.136         -40.9253        -147.136       -0.0466269         137.966
0.671                   -8.80584         131.085         -40.8436        -148.875         -40.8436        -148.875       -0.0472895         137.867
0.672                   -8.97078         130.464         -40.7628        -150.613         -40.7628        -150.613       -0.0479602         137.767
0.673                   -9.13866         129.857         -40.6827        -152.351         -40.6828        -152.351       -0.0486391         137.667
0.674                   -9.30951         129.263         -40.6035        -154.087         -40.6035        -154.087       -0.0493262         137.566
0.675                   -9.48335         128.684         -40.5251        -155.821         -40.5251        -155.821       -0.0500217         137.465
0.676                   -9.66022         128.121         -40.4475        -157.554         -40.4475        -157.554       -0.0507258         137.364
0.677                   -9.84011         127.575         -40.3707        -159.286         -40.3707        -159.286       -0.0514385         137.261
0.678                   -10.0231         127.046         -40.2947        -161.015         -40.2947        -161.015       -0.0521601         137.159
0.679                   -10.2091         126.537         -40.2195        -162.742         -40.2195        -162.742       -0.0528906         137.055
0.68                    -10.3981         126.048         -40.1451        -164.467         -40.1451        -164.467       -0.0536303         136.951
0.681                   -10.5903         125.581         -40.0714        -166.189         -40.0714        -166.189       -0.0543794         136.847
0.682                   -10.7854         125.137         -39.9986        -167.908         -39.9985        -167.909        -0.055138         136.742
0.683                   -10.9836         124.717         -39.9264        -169.625         -39.9264        -169.625       -0.0559064         136.636
0.684                   -11.1848         124.323          -39.855        -171.338          -39.855        -171.339       -0.0566848          136.53
0.685                   -11.3889         123.957         -39.7844        -173.048         -39.7843        -173.049       -0.0574735         136.423
0.686                    -11.596         123.619         -39.7144        -174.755         -39.7144        -174.755       -0.0582727         136.316
0.687                   -11.8058         123.313         -39.6451        -176.458         -39.6451        -176.458       -0.0590828         136.207
0.688                   -12.0184         123.039         -39.5765        -178.157         -39.5765        -178.157       -0.0599041         136.099
0.689                   -12.2337         122.799         -39.5085        -179.852         -39.5085        -179.852       -0.0607368         135.989
0.69                    -12.4514         122.596         -39.4411         178.457         -39.4411         178.457       -0.0615813         135.879
0.691                   -12.6716         122.431         -39.3744         176.771         -39.3744          176.77        -0.062438         135.768
0.692                   -12.8939         122.307         -39.3082         175.089         -39.3082         175.088       -0.0633072         135.657
0.693                   -13.1182         122.225         -39.2426         173.411         -39.2426         173.411       -0.0641895         135.544
0.694                   -13.3443         122.188         -39.1775         171.738         -39.1774         171.738       -0.0650851         135.432
0.695                   -13.5719         122.198         -39.1128          170.07         -39.1128          170.07       -0.0659946         135.318
0.696                   -13.8007         122.257         -39.0487         168.407         -39.0487         168.407       -0.0669184         135.203
0.697                   -14.0303         122.368          -38.985          166.75          -38.985         166.749        -0.067857         135.088