! TOUCHSTONE file generated by CST MICROWAVE STUDIO
! Date and time: Fri Oct  2 17:00:59 2020
! Project name: Scenario_1_Free_Space_out_of_line.cst
! Parameters = {Lambda=346.42; Step_1=17.321; dy1=-311.318; dx1=693; L_HA=400; MT=2.54; Rad_Dielectric=30; Rad_Lower=7.3; Rad_Upper=30; a_HA=580; a_WG=246; b_HA=500; b_WG=121; c_HA=0; c_WG=187; d_feed=85; h_feed=15; h_lower=18; h_upper=40}
! Header version: 2018
! Port assignment regex: !\s*Touchstone port\s*([0-9]+)\s*=\s*(CST MWS port|CST DS port)\s*([0-9]+|Zmin|Zmax)\s*\(\"(.*)\"\)(\s*mode\s*([0-9]+))?.*
! Touchstone port assignment:
! Touchstone port 1 = CST MWS port 1 ("")
! Touchstone port 2 = CST MWS port 2 ("")
# GHz S DB R 50
0.5                    -0.148975        -122.589         -64.4444         -135.99         -64.4444         -135.99      -0.00669769         151.144
0.501                  -0.155411        -123.028         -64.2461        -138.277         -64.2464        -138.277      -0.00677432         151.079
0.502                  -0.161989        -123.468         -64.0472        -140.548         -64.0476        -140.548      -0.00685094         151.013
0.503                  -0.168711         -123.91         -63.8477        -142.804         -63.8483        -142.803      -0.00692757         150.948
0.504                  -0.175579        -124.354         -63.6477        -145.045         -63.6485        -145.044       -0.0070042         150.882
0.505                  -0.182597          -124.8         -63.4474        -147.272         -63.4484        -147.271      -0.00708086         150.817
0.506                  -0.189767        -125.248         -63.2469        -149.487         -63.2481        -149.486      -0.00715754         150.751
0.507                  -0.197092        -125.698         -63.0463        -151.689         -63.0475        -151.688      -0.00723425         150.686
0.508                  -0.204575         -126.15         -62.8456         -153.88          -62.847        -153.879      -0.00731102          150.62
0.509                  -0.212219        -126.604          -62.645        -156.061         -62.6464         -156.06      -0.00738785         150.554
0.51                   -0.220028         -127.06         -62.4445        -158.231          -62.446        -158.231      -0.00746475         150.488
0.511                  -0.228004        -127.518         -62.2441        -160.393         -62.2457        -160.392      -0.00754174         150.422
0.512                  -0.236151        -127.977         -62.0439        -162.546         -62.0456        -162.545      -0.00761884         150.356
0.513                  -0.244472        -128.439         -61.8441        -164.691         -61.8457        -164.691      -0.00769606          150.29
0.514                  -0.252971        -128.903         -61.6446         -166.83         -61.6462        -166.829      -0.00777341         150.223
0.515                  -0.261651         -129.37         -61.4454        -168.962         -61.4471        -168.961      -0.00785093         150.157
0.516                  -0.270516        -129.838         -61.2467        -171.088         -61.2484        -171.087      -0.00792863         150.091
0.517                   -0.27957        -130.308         -61.0484        -173.209         -61.0501        -173.208      -0.00800653         150.024
0.518                  -0.288816        -130.781         -60.8506        -175.326         -60.8524        -175.325      -0.00808465         149.957
0.519                   -0.29826        -131.255         -60.6534        -177.439         -60.6551        -177.438      -0.00816302         149.891
0.52                   -0.307903        -131.732         -60.4567        -179.548         -60.4584        -179.547      -0.00824166         149.824
0.521                  -0.317752        -132.211         -60.2606         178.346         -60.2623         178.346      -0.00832061         149.757
0.522                   -0.32781        -132.693         -60.0651         176.241         -60.0667         176.242      -0.00839988          149.69
0.523                  -0.338082        -133.176         -59.8703         174.139         -59.8718         174.139      -0.00847951         149.623
0.524                  -0.348572        -133.662         -59.6761         172.038         -59.6776         172.038      -0.00855952         149.556
0.525                  -0.359285         -134.15         -59.4826         169.937          -59.484         169.938      -0.00863996         149.489
0.526                  -0.370225        -134.641         -59.2898         167.837         -59.2911         167.838      -0.00872084         149.421
0.527                  -0.381398        -135.134         -59.0976         165.737          -59.099         165.738       -0.0088022         149.354
0.528                  -0.392809        -135.629         -58.9063         163.637         -58.9075         163.637      -0.00888409         149.286
0.529                  -0.404462        -136.126         -58.7156         161.535         -58.7168         161.536      -0.00896652         149.219
0.53                   -0.416363        -136.626         -58.5258         159.433         -58.5269         159.434      -0.00904955         149.151
0.531                  -0.428517        -137.128         -58.3367         157.329         -58.3377          157.33       -0.0091332         149.083
0.532                   -0.44093        -137.633         -58.1484         155.223         -58.1493         155.223      -0.00921751         149.015
0.533                  -0.453608         -138.14         -57.9609         153.114         -57.9618         153.115      -0.00930253         148.947
0.534                  -0.466556         -138.65         -57.7742         151.004          -57.775         151.004      -0.00938829         148.879
0.535                   -0.47978        -139.162         -57.5883          148.89         -57.5891         148.891      -0.00947483         148.811
0.536                  -0.493286        -139.677         -57.4033         146.773          -57.404         146.774      -0.00956219         148.742
0.537                  -0.507081        -140.194         -57.2192         144.654         -57.2198         144.654      -0.00965042         148.674
0.538                  -0.521171        -140.713         -57.0359          142.53         -57.0364         142.531      -0.00973955         148.605
0.539                  -0.535562        -141.236         -56.8535         140.403          -56.854         140.404      -0.00982963         148.537
0.54                   -0.550261         -141.76          -56.672         138.272         -56.6724         138.272       -0.0099207         148.468
0.541                  -0.565275        -142.287         -56.4914         136.136         -56.4917         136.137       -0.0100128         148.399
0.542                  -0.580611        -142.817         -56.3118         133.996          -56.312         133.997        -0.010106          148.33
0.543                  -0.596275         -143.35          -56.133         131.852         -56.1331         131.853       -0.0102003         148.261
0.544                  -0.612275        -143.885         -55.9552         129.704         -55.9553         129.704       -0.0102957         148.192
0.545                  -0.628619        -144.423         -55.7784          127.55         -55.7784         127.551       -0.0103924         148.123
0.546                  -0.645313        -144.963         -55.6025         125.392         -55.6024         125.393       -0.0104903         148.053
0.547                  -0.662366        -145.506         -55.4276         123.229         -55.4274         123.229       -0.0105895         147.984
0.548                  -0.679785        -146.051         -55.2537         121.061         -55.2535         121.061         -0.01069         147.914
0.549                  -0.697578          -146.6         -55.0808         118.888         -55.0805         118.888       -0.0107919         147.844
0.55                   -0.715754        -147.151         -54.9089          116.71         -54.9086          116.71       -0.0108952         147.774
0.551                  -0.734321        -147.704         -54.7381         114.526         -54.7376         114.527       -0.0109999         147.704
0.552                  -0.753286         -148.26         -54.5683         112.338         -54.5678         112.338       -0.0111062         147.634
0.553                  -0.772658        -148.819         -54.3995         110.145         -54.3989         110.145       -0.0112139         147.564
0.554                  -0.792447        -149.381         -54.2318         107.946         -54.2312         107.946       -0.0113232         147.493
0.555                   -0.81266        -149.945         -54.0651         105.743         -54.0644         105.743       -0.0114342         147.423
0.556                  -0.833307        -150.513         -53.8995         103.534         -53.8988         103.534       -0.0115467         147.352
0.557                  -0.854396        -151.082          -53.735         101.321         -53.7343          101.32       -0.0116609         147.282
0.558                  -0.875937        -151.655         -53.5716         99.1022         -53.5708         99.1019       -0.0117769         147.211
0.559                  -0.897939         -152.23         -53.4093          96.879         -53.4085         96.8786       -0.0118945          147.14
0.56                   -0.920411        -152.808         -53.2481          94.651         -53.2473         94.6505       -0.0120139         147.069
0.561                  -0.943362        -153.388         -53.0881         92.4185         -53.0871         92.4179       -0.0121352         146.997
0.562                  -0.966802        -153.971         -52.9291         90.1815         -52.9281         90.1807       -0.0122582         146.926
0.563                   -0.99074        -154.557         -52.7712           87.94         -52.7703         87.9392       -0.0123831         146.854
0.564                   -1.01519        -155.146         -52.6145         85.6944         -52.6135         85.6934       -0.0125098         146.783
0.565                   -1.04015        -155.737         -52.4589         83.4446         -52.4579         83.4435       -0.0126385         146.711
0.566                   -1.06564        -156.331         -52.3045         81.1908         -52.3034         81.1896       -0.0127691         146.639
0.567                   -1.09167        -156.927         -52.1512         78.9332         -52.1501         78.9319       -0.0129016         146.567
0.568                   -1.11824        -157.526          -51.999          76.672         -51.9979         76.6706       -0.0130361         146.495
0.569                   -1.14537        -158.128         -51.8479         74.4073         -51.8468         74.4057       -0.0131726         146.422
0.57                    -1.17307        -158.732         -51.6979         72.1392         -51.6969         72.1376       -0.0133111          146.35
0.571                   -1.20134        -159.338         -51.5491         69.8681          -51.548         69.8664       -0.0134516         146.277
0.572                    -1.2302        -159.947         -51.4014          67.594         -51.4003         67.5922       -0.0135941         146.204
0.573                   -1.25965        -160.559         -51.2548         65.3171         -51.2537         65.3152       -0.0137387         146.132
0.574                    -1.2897        -161.173         -51.1093         63.0377         -51.1082         63.0357       -0.0138854         146.059
0.575                   -1.32036         -161.79         -50.9649         60.7559         -50.9638         60.7538       -0.0140341         145.985
0.576                   -1.35165        -162.409         -50.8216         58.4719         -50.8205         58.4697       -0.0141849         145.912
0.577                   -1.38357         -163.03         -50.6793          56.186         -50.6783         56.1837       -0.0143379         145.838
0.578                   -1.41613        -163.653         -50.5381         53.8982         -50.5371         53.8959       -0.0144929         145.765
0.579                   -1.44933        -164.279          -50.398         51.6089          -50.397         51.6064       -0.0146501         145.691
0.58                     -1.4832        -164.907         -50.2589         49.3181         -50.2579         49.3156       -0.0148094         145.617
0.581                   -1.51772        -165.538         -50.1208         47.0262         -50.1198         47.0236       -0.0149709         145.543
0.582                   -1.55292         -166.17         -49.9837         44.7332         -49.9828         44.7306       -0.0151345         145.469
0.583                    -1.5888        -166.805         -49.8476         42.4394         -49.8467         42.4367       -0.0153004         145.394
0.584                   -1.62536        -167.442         -49.7125         40.1449         -49.7116         40.1422       -0.0154684          145.32
0.585                   -1.66262         -168.08         -49.5783           37.85         -49.5774         37.8473       -0.0156386         145.245
0.586                   -1.70058        -168.721          -49.445         35.5548         -49.4441          35.552        -0.015811          145.17
0.587                   -1.73925        -169.364         -49.3126         33.2594         -49.3118         33.2566       -0.0159856         145.095
0.588                   -1.77862        -170.008         -49.1811         30.9641         -49.1803         30.9613       -0.0161625          145.02
0.589                   -1.81872        -170.655         -49.0504         28.6689         -49.0497         28.6661       -0.0163416         144.944
0.59                    -1.85954        -171.303         -48.9206         26.3741         -48.9199         26.3713       -0.0165229         144.869
0.591                   -1.90108        -171.953         -48.7916         24.0797         -48.7909         24.0769       -0.0167066         144.793
0.592                   -1.94336        -172.605         -48.6633          21.786         -48.6627         21.7832       -0.0168926         144.717
0.593                   -1.98637        -173.259         -48.5358          19.493         -48.5352         19.4902       -0.0170809         144.641
0.594                   -2.03012        -173.914         -48.4091         17.2008         -48.4085         17.1981       -0.0172715         144.564
0.595                   -2.07462         -174.57          -48.283         14.9096         -48.2824         14.9069       -0.0174645         144.488
0.596                   -2.11985        -175.229         -48.1576         12.6195         -48.1571         12.6169       -0.0176599         144.411
0.597                   -2.16584        -175.888         -48.0329         10.3305         -48.0324         10.3279       -0.0178577         144.334
0.598                   -2.21257         -176.55         -47.9088         8.04279         -47.9083         8.04024        -0.018058         144.257
0.599                   -2.26005        -177.213         -47.7852         5.75636         -47.7848         5.75387       -0.0182608          144.18
0.6                     -2.30828        -177.877         -47.6623         3.47131         -47.6619         3.46889       -0.0184661         144.103
0.601                   -2.35727        -178.542         -47.5399          1.1877         -47.5395         1.18534        -0.018674         144.025
0.602                   -2.40701         -179.21         -47.4179        -1.09444         -47.4176        -1.09673       -0.0188845         143.947
0.603                    -2.4575        -179.878         -47.2965        -3.37506         -47.2962        -3.37728       -0.0190976         143.869
0.604                   -2.50875         179.452         -47.1755        -5.65413         -47.1752        -5.65627       -0.0193135         143.791
0.605                   -2.56075         178.781          -47.055        -7.93165         -47.0547        -7.93371       -0.0195321         143.712
0.606                   -2.61351         178.108         -46.9348        -10.2076         -46.9346        -10.2096       -0.0197536         143.634
0.607                   -2.66703         177.434         -46.8151        -12.4819         -46.8149        -12.4838       -0.0199779         143.555
0.608                    -2.7213         176.758         -46.6957        -14.7547         -46.6955        -14.7565       -0.0202052         143.476
0.609                   -2.77634         176.081         -46.5766         -17.026         -46.5765        -17.0277       -0.0204355         143.396
0.61                    -2.83213         175.403         -46.4579        -19.2957         -46.4577        -19.2973       -0.0206689         143.317
0.611                   -2.88869         174.723         -46.3394        -21.5639         -46.3393        -21.5654       -0.0209055         143.237
0.612                   -2.94602         174.041         -46.2212        -23.8306         -46.2211        -23.8321       -0.0211454         143.157
0.613                   -3.00412         173.358         -46.1032         -26.096         -46.1031        -26.0973       -0.0213886         143.077
0.614                   -3.06299         172.673         -45.9855          -28.36         -45.9854        -28.3612       -0.0216353         142.996
0.615                   -3.12265         171.987         -45.8679        -30.6226         -45.8679        -30.6238       -0.0218856         142.916
0.616                   -3.18309         171.298         -45.7506        -32.8841         -45.7505        -32.8852       -0.0221395         142.835
0.617                   -3.24434         170.608         -45.6334        -35.1444         -45.6334        -35.1454       -0.0223973         142.754
0.618                   -3.30639         169.915         -45.5163        -37.4036         -45.5163        -37.4045       -0.0226589         142.672
0.619                   -3.36926         169.221         -45.3994        -39.6619         -45.3995        -39.6627       -0.0229246         142.591
0.62                    -3.43296         168.524         -45.2827        -41.9192         -45.2827        -41.9199       -0.0231944         142.509
0.621                   -3.49751         167.826          -45.166        -44.1757          -45.166        -44.1764       -0.0234685         142.426
0.622                   -3.56293         167.125         -45.0494        -46.4316         -45.0495        -46.4322       -0.0237471         142.344
0.623                   -3.62922         166.421          -44.933        -48.6868          -44.933        -48.6873       -0.0240303         142.261
0.624                   -3.69643         165.715         -44.8165        -50.9416         -44.8166         -50.942       -0.0243183         142.178
0.625                   -3.76456         165.006         -44.7002         -53.196         -44.7003        -53.1963       -0.0246112         142.095
0.626                   -3.83365         164.294         -44.5839        -55.4501          -44.584        -55.4504       -0.0249092         142.012
0.627                   -3.90373          163.58         -44.4677        -57.7041         -44.4678        -57.7043       -0.0252124         141.928
0.628                   -3.97481         162.862         -44.3516         -59.958         -44.3516        -59.9582       -0.0255211         141.844
0.629                   -4.04695         162.142         -44.2354        -62.2121         -44.2355        -62.2121       -0.0258355         141.759
0.63                    -4.12017         161.418         -44.1194        -64.4663         -44.1194        -64.4664       -0.0261557         141.675
0.631                   -4.19452         160.691         -44.0033        -66.7209         -44.0034        -66.7209       -0.0264819          141.59
0.632                   -4.27003         159.961         -43.8873         -68.976         -43.8874        -68.9759       -0.0268144         141.505
0.633                   -4.34675         159.228         -43.7714        -71.2317         -43.7715        -71.2316       -0.0271534         141.419
0.634                   -4.42473         158.491         -43.6555         -73.488         -43.6556        -73.4879        -0.027499         141.333
0.635                   -4.50402          157.75         -43.5397        -75.7453         -43.5398        -75.7451       -0.0278516         141.247
0.636                   -4.58467         157.006         -43.4239        -78.0034          -43.424        -78.0032       -0.0282112         141.161
0.637                   -4.66674         156.259         -43.3082        -80.2627         -43.3083        -80.2624       -0.0285783         141.074
0.638                   -4.75028         155.508         -43.1925        -82.5231         -43.1926        -82.5229       -0.0289529         140.987
0.639                   -4.83535         154.753          -43.077        -84.7849          -43.077        -84.7846       -0.0293354         140.899
0.64                    -4.92203         153.996         -42.9615         -87.048         -42.9616        -87.0477        -0.029726         140.812
0.641                   -5.01037         153.234         -42.8461        -89.3128         -42.8462        -89.3124       -0.0301248         140.724
0.642                   -5.10044          152.47         -42.7308        -91.5791         -42.7309        -91.5788       -0.0305323         140.635
0.643                   -5.19231         151.702         -42.6157        -93.8472         -42.6158        -93.8468       -0.0309485         140.546
0.644                   -5.28606         150.931         -42.5007        -96.1171         -42.5008        -96.1167       -0.0313738         140.457
0.645                   -5.38175         150.157         -42.3859        -98.3889         -42.3859        -98.3885       -0.0318084         140.368
0.646                   -5.47947         149.381         -42.2712        -100.663         -42.2713        -100.662       -0.0322525         140.278
0.647                   -5.57929         148.602         -42.1567        -102.939         -42.1568        -102.938       -0.0327065         140.188
0.648                   -5.68129         147.821         -42.0424        -105.217         -42.0425        -105.216       -0.0331704         140.098
0.649                   -5.78555         147.038         -41.9284        -107.497         -41.9284        -107.497       -0.0336446         140.007
0.65                    -5.89215         146.253         -41.8146         -109.78         -41.8146        -109.779       -0.0341293         139.916
0.651                   -6.00117         145.467          -41.701        -112.064         -41.7011        -112.064       -0.0346247         139.824
0.652                    -6.1127         144.679         -41.5878        -114.352         -41.5878        -114.351       -0.0351311         139.732
0.653                   -6.22682         143.892         -41.4748        -116.641         -41.4748        -116.641       -0.0356485          139.64
0.654                   -6.34362         143.104         -41.3622        -118.933         -41.3622        -118.933       -0.0361774         139.547
0.655                   -6.46317         142.317         -41.2499        -121.228         -41.2499        -121.228       -0.0367178         139.454
0.656                   -6.58557         141.531          -41.138        -123.525          -41.138        -123.525       -0.0372699         139.361
0.657                   -6.71089         140.746         -41.0264        -125.824         -41.0265        -125.824       -0.0378339         139.267
0.658                   -6.83923         139.964         -40.9153        -128.126         -40.9153        -128.126         -0.03841         139.173
0.659                   -6.97066         139.184         -40.8047        -130.431         -40.8047        -130.431       -0.0389984         139.078
0.66                    -7.10527         138.408         -40.6944        -132.737         -40.6944        -132.737       -0.0395992         138.983
0.661                   -7.24313         137.636         -40.5847        -135.047         -40.5847        -135.046       -0.0402125         138.887
0.662                   -7.38433         136.869         -40.4755        -137.358         -40.4755        -137.358       -0.0408384         138.791
0.663                   -7.52894         136.109         -40.3668        -139.672         -40.3668        -139.672       -0.0414772         138.695
0.664                   -7.67703         135.355         -40.2586        -141.987         -40.2586        -141.987       -0.0421288         138.598
0.665                   -7.82869         134.609          -40.151        -144.305          -40.151        -144.305       -0.0427934         138.501
0.666                   -7.98397         133.872          -40.044        -146.625          -40.044        -146.625        -0.043471         138.404
0.667                   -8.14295         133.145         -39.9376        -148.947         -39.9376        -148.947       -0.0441618         138.305
0.668                   -8.30568          132.43         -39.8319        -151.271         -39.8319        -151.271       -0.0448658         138.207
0.669                   -8.47222         131.726         -39.7268        -153.596         -39.7268        -153.596       -0.0455831         138.108
0.67                    -8.64262         131.037         -39.6223        -155.923         -39.6223        -155.923       -0.0463136         138.009
0.671                   -8.81694         130.362         -39.5185        -158.251         -39.5185        -158.252       -0.0470575         137.909
0.672                   -8.99519         129.704         -39.4155        -160.581         -39.4155        -160.581       -0.0478149         137.808
0.673                   -9.17743         129.065         -39.3131        -162.912         -39.3131        -162.912       -0.0485856         137.707
0.674                   -9.36366         128.444         -39.2114        -165.244         -39.2114        -165.244       -0.0493699         137.606
0.675                    -9.5539         127.846         -39.1105        -167.576         -39.1105        -167.576       -0.0501676         137.504
0.676                   -9.74815          127.27         -39.0103        -169.909         -39.0103        -169.909        -0.050979         137.402
0.677                    -9.9464         126.719         -38.9109        -172.243         -38.9109        -172.243       -0.0518039         137.299
0.678                   -10.1486         126.195         -38.8122        -174.577         -38.8122        -174.577       -0.0526424         137.195
0.679                   -10.3548           125.7         -38.7143        -176.911         -38.7143        -176.911       -0.0534946         137.091
0.68                    -10.5648         125.236         -38.6171        -179.245         -38.6171        -179.245       -0.0543606         136.987
0.681                   -10.7786         124.805         -38.5207         178.422         -38.5207         178.422       -0.0552404         136.882
0.682                   -10.9961          124.41          -38.425         176.089          -38.425         176.089       -0.0561341         136.776
0.683                   -11.2171         124.053         -38.3301         173.756         -38.3301         173.756       -0.0570418          136.67
0.684                   -11.4416         123.737          -38.236         171.425          -38.236         171.425       -0.0579637         136.563
0.685                   -11.6692         123.463         -38.1426         169.094         -38.1426         169.094       -0.0588998         136.456
0.686                   -11.8999         123.236         -38.0499         166.765         -38.0499         166.765       -0.0598504         136.348
0.687                   -12.1332         123.056          -37.958         164.438          -37.958         164.438       -0.0608155         136.239
0.688                    -12.369         122.928         -37.8668         162.112         -37.8668         162.112       -0.0617955          136.13
0.689                   -12.6068         122.853         -37.7763         159.788         -37.7763         159.788       -0.0627905          136.02
0.69                    -12.8463         122.836         -37.6865         157.466         -37.6865         157.466       -0.0638008          135.91
0.691                    -13.087         122.877         -37.5973         155.146         -37.5973         155.146       -0.0648267         135.798
0.692                   -13.3284          122.98         -37.5088         152.829         -37.5088         152.829       -0.0658685         135.686
0.693                   -13.5698         123.148         -37.4209         150.514         -37.4209         150.514       -0.0669267         135.574
0.694                   -13.8107         123.383         -37.3336         148.202         -37.3336         148.202       -0.0680014          135.46
0.695                   -14.0503         123.686         -37.2469         145.893         -37.2469         145.894       -0.0690933         135.346
0.696                   -14.2878         124.059         -37.1608         143.587         -37.1608         143.588       -0.0702028         135.231
0.697                   -14.5224         124.505         -37.0752         141.285         -37.0752         141.285       -0.0713303         135.116