! TOUCHSTONE file generated by CST MICROWAVE STUDIO
! Date and time: Fri Oct  2 17:13:37 2020
! Project name: Scenario_1_Free_Space_out_of_line.cst
! Parameters = {Lambda=346.42; Step_1=17.321; dy1=312.958; dx1=173; L_HA=400; MT=2.54; Rad_Dielectric=30; Rad_Lower=7.3; Rad_Upper=30; a_HA=580; a_WG=246; b_HA=500; b_WG=121; c_HA=0; c_WG=187; d_feed=85; h_feed=15; h_lower=18; h_upper=40}
! Header version: 2018
! Port assignment regex: !\s*Touchstone port\s*([0-9]+)\s*=\s*(CST MWS port|CST DS port)\s*([0-9]+|Zmin|Zmax)\s*\(\"(.*)\"\)(\s*mode\s*([0-9]+))?.*
! Touchstone port assignment:
! Touchstone port 1 = CST MWS port 1 ("")
! Touchstone port 2 = CST MWS port 2 ("")
# GHz S DB R 50
0.5                    -0.147407        -122.719         -63.5876         119.382         -63.5876         119.382      -0.00626513         151.118
0.501                  -0.154305        -123.166         -63.4748          117.29         -63.4748          117.29       -0.0063131         151.052
0.502                  -0.161376        -123.615         -63.3568         115.214         -63.3568         115.214       -0.0063626         150.986
0.503                  -0.168624        -124.066         -63.2339         113.154         -63.2339         113.154      -0.00641362         150.921
0.504                  -0.176049        -124.519         -63.1063         111.113         -63.1062         111.113      -0.00646616         150.855
0.505                  -0.183653        -124.973         -62.9743          109.09         -62.9742         109.091      -0.00652021         150.789
0.506                   -0.19144        -125.429         -62.8381         107.087          -62.838         107.088      -0.00657578         150.723
0.507                  -0.199412        -125.887         -62.6981         105.105         -62.6979         105.105      -0.00663285         150.657
0.508                   -0.20757        -126.346         -62.5544         103.142         -62.5542         103.143      -0.00669142         150.591
0.509                  -0.215916        -126.808         -62.4073         101.201         -62.4071         101.201      -0.00675149         150.525
0.51                   -0.224454        -127.271         -62.2571         99.2799         -62.2569         99.2804      -0.00681305         150.459
0.511                  -0.233185        -127.736         -62.1041         97.3802         -62.1039         97.3807       -0.0068761         150.393
0.512                  -0.242113        -128.202         -61.9484         95.5014         -61.9482          95.502      -0.00694063         150.326
0.513                  -0.251238        -128.671         -61.7904         93.6434         -61.7901         93.6441      -0.00700662          150.26
0.514                  -0.260564        -129.141         -61.6301         91.8059         -61.6299         91.8066      -0.00707408         150.193
0.515                  -0.270094        -129.613          -61.468         89.9886         -61.4677         89.9894      -0.00714299         150.127
0.516                   -0.27983        -130.087          -61.304         88.1911         -61.3038         88.1919      -0.00721334          150.06
0.517                  -0.289774        -130.563         -61.1386          86.413         -61.1383         86.4138      -0.00728513         149.993
0.518                   -0.29993         -131.04         -60.9717         84.6537         -60.9714         84.6546      -0.00735833         149.927
0.519                  -0.310299         -131.52         -60.8037         82.9126         -60.8034         82.9136      -0.00743293          149.86
0.52                   -0.320885        -132.001         -60.6346         81.1893         -60.6343         81.1903      -0.00750893         149.793
0.521                  -0.331691        -132.485         -60.4646         79.4831         -60.4643         79.4841      -0.00758631         149.726
0.522                  -0.342718         -132.97         -60.2939         77.7932         -60.2936         77.7943      -0.00766505         149.658
0.523                  -0.353972        -133.457         -60.1226         76.1192         -60.1223         76.1203      -0.00774514         149.591
0.524                  -0.365453        -133.946         -59.9509         74.4601         -59.9506         74.4613      -0.00782656         149.524
0.525                  -0.377165        -134.438         -59.7787         72.8155         -59.7784         72.8167      -0.00790928         149.456
0.526                  -0.389112        -134.931         -59.6064         71.1845         -59.6061         71.1857       -0.0079933         149.389
0.527                  -0.401297        -135.426         -59.4338         69.5664         -59.4335         69.5677      -0.00807859         149.321
0.528                  -0.413722        -135.923         -59.2613         67.9606          -59.261         67.9619      -0.00816513         149.254
0.529                  -0.426391        -136.422         -59.0887         66.3663         -59.0884         66.3676       -0.0082529         149.186
0.53                   -0.439307        -136.923         -58.9163         64.7828          -58.916         64.7841      -0.00834187         149.118
0.531                  -0.452474        -137.426          -58.744         63.2095         -58.7438         63.2108      -0.00843203          149.05
0.532                  -0.465895        -137.931         -58.5721         61.6455         -58.5718         61.6468      -0.00852334         148.982
0.533                  -0.479573        -138.439         -58.4004         60.0903         -58.4001         60.0916      -0.00861579         148.914
0.534                  -0.493513        -138.948         -58.2291         58.5432         -58.2289         58.5444      -0.00870935         148.845
0.535                  -0.507718        -139.459         -58.0583         57.0034          -58.058         57.0047        -0.008804         148.777
0.536                  -0.522191        -139.973         -57.8879         55.4704         -57.8877         55.4717       -0.0088997         148.709
0.537                  -0.536936        -140.489         -57.7181         53.9435         -57.7179         53.9448      -0.00899643          148.64
0.538                  -0.551958        -141.007         -57.5489         52.4221         -57.5486         52.4233      -0.00909418         148.572
0.539                   -0.56726        -141.527         -57.3802         50.9056           -57.38         50.9068       -0.0091929         148.503
0.54                   -0.582847        -142.049         -57.2123         49.3933          -57.212         49.3945      -0.00929258         148.434
0.541                  -0.598722        -142.573          -57.045         47.8848         -57.0448          47.886      -0.00939319         148.365
0.542                  -0.614889          -143.1         -56.8784         46.3794         -56.8782         46.3805      -0.00949471         148.296
0.543                  -0.631354        -143.629         -56.7125         44.8766         -56.7123         44.8777      -0.00959712         148.227
0.544                   -0.64812         -144.16         -56.5475         43.3758         -56.5473         43.3769       -0.0097004         148.158
0.545                  -0.665191        -144.693         -56.3832         41.8766          -56.383         41.8777      -0.00980453         148.088
0.546                  -0.682574        -145.229         -56.2198         40.3784         -56.2196         40.3794      -0.00990949         148.019
0.547                  -0.700271        -145.766         -56.0571         38.8807          -56.057         38.8818       -0.0100153         147.949
0.548                  -0.718288        -146.307         -55.8954         37.3832         -55.8952         37.3841       -0.0101219          147.88
0.549                   -0.73663        -146.849         -55.7345         35.8852         -55.7344         35.8861       -0.0102292          147.81
0.55                   -0.755302        -147.394         -55.5745         34.3864         -55.5744         34.3873       -0.0103374          147.74
0.551                  -0.774309        -147.941         -55.4155         32.8863         -55.4153         32.8872       -0.0104464          147.67
0.552                  -0.793657         -148.49         -55.2574         31.3845         -55.2572         31.3854       -0.0105562           147.6
0.553                  -0.813349        -149.042         -55.1002         29.8807         -55.1001         29.8815       -0.0106668          147.53
0.554                  -0.833393        -149.597          -54.944         28.3744         -54.9438         28.3751       -0.0107782         147.459
0.555                  -0.853793        -150.153         -54.7887         26.8653         -54.7886          26.866       -0.0108904         147.389
0.556                  -0.874555        -150.713         -54.6345          25.353         -54.6344         25.3536       -0.0110035         147.318
0.557                  -0.895686        -151.274         -54.4812         23.8371         -54.4811         23.8377       -0.0111176         147.247
0.558                   -0.91719        -151.838          -54.329         22.3174         -54.3289          22.318       -0.0112325         147.177
0.559                  -0.939075        -152.405         -54.1778         20.7935         -54.1778         20.7941       -0.0113484         147.106
0.56                   -0.961346        -152.974         -54.0277         19.2652         -54.0276         19.2657       -0.0114654         147.034
0.561                   -0.98401        -153.545         -53.8786         17.7321         -53.8785         17.7325       -0.0115834         146.963
0.562                   -1.00707        -154.119         -53.7306          16.194         -53.7305         16.1944       -0.0117025         146.892
0.563                   -1.03054        -154.696         -53.5837         14.6506         -53.5836          14.651       -0.0118229          146.82
0.564                   -1.05442        -155.275         -53.4378         13.1017         -53.4378         13.1021       -0.0119445         146.749
0.565                   -1.07873        -155.857         -53.2931         11.5471          -53.293         11.5474       -0.0120675         146.677
0.566                   -1.10346        -156.441         -53.1495         9.98655         -53.1494         9.98678       -0.0121919         146.605
0.567                   -1.12862        -157.028          -53.007         8.41984          -53.007         8.42003       -0.0123179         146.533
0.568                   -1.15422        -157.618         -52.8656          6.8468         -52.8656         6.84696       -0.0124454         146.461
0.569                   -1.18028         -158.21         -52.7255         5.26727         -52.7254         5.26739       -0.0125747         146.388
0.57                    -1.20679        -158.805         -52.5864          3.6811         -52.5864         3.68118       -0.0127058         146.316
0.571                   -1.23377        -159.403         -52.4486         2.08815         -52.4486         2.08819       -0.0128388         146.243
0.572                   -1.26122        -160.003         -52.3119        0.488294         -52.3119        0.488294       -0.0129738          146.17
0.573                   -1.28915        -160.606         -52.1765        -1.11858         -52.1765        -1.11861        -0.013111         146.097
0.574                   -1.31758        -161.212         -52.0422        -2.73255         -52.0422        -2.73262       -0.0132503         146.024
0.575                    -1.3465        -161.821         -51.9092        -4.35371         -51.9092        -4.35382        -0.013392         145.951
0.576                   -1.37593        -162.432         -51.7774        -5.98212         -51.7774        -5.98225       -0.0135361         145.878
0.577                   -1.40588        -163.046         -51.6468        -7.61782         -51.6468        -7.61799       -0.0136828         145.804
0.578                   -1.43636        -163.663         -51.5175        -9.26084         -51.5175        -9.26104       -0.0138321         145.731
0.579                   -1.46738        -164.283         -51.3894        -10.9112         -51.3894        -10.9114       -0.0139842         145.657
0.58                    -1.49894        -164.905         -51.2626        -12.5689         -51.2626        -12.5692        -0.014139         145.583
0.581                   -1.53106         -165.53         -51.1371         -14.234         -51.1371        -14.2343       -0.0142968         145.508
0.582                   -1.56375        -166.159         -51.0128        -15.9064         -51.0129        -15.9067       -0.0144577         145.434
0.583                   -1.59701         -166.79         -50.8898         -17.586         -50.8899        -17.5864       -0.0146216          145.36
0.584                   -1.63087        -167.423         -50.7682        -19.2729         -50.7682        -19.2733       -0.0147887         145.285
0.585                   -1.66533         -168.06         -50.6478        -20.9669         -50.6478        -20.9673       -0.0149591          145.21
0.586                    -1.7004          -168.7         -50.5287         -22.668         -50.5288        -22.6684       -0.0151328         145.135
0.587                   -1.73609        -169.342         -50.4109        -24.3761          -50.411        -24.3765       -0.0153098          145.06
0.588                   -1.77242        -169.988         -50.2944         -26.091         -50.2945        -26.0914       -0.0154904         144.985
0.589                    -1.8094        -170.636         -50.1792        -27.8127         -50.1793        -27.8131       -0.0156744         144.909
0.59                    -1.84704        -171.288         -50.0653         -29.541         -50.0654        -29.5414        -0.015862         144.833
0.591                   -1.88535        -171.942         -49.9527        -31.2757         -49.9528        -31.2761       -0.0160532         144.757
0.592                   -1.92435        -172.599         -49.8415        -33.0167         -49.8415        -33.0172        -0.016248         144.681
0.593                   -1.96405        -173.259         -49.7315        -34.7639         -49.7315        -34.7643       -0.0164465         144.605
0.594                   -2.00447        -173.922         -49.6227         -36.517         -49.6228        -36.5174       -0.0166488         144.529
0.595                   -2.04562        -174.588         -49.5153        -38.2758         -49.5154        -38.2763       -0.0168547         144.452
0.596                   -2.08751        -175.257         -49.4091        -40.0402         -49.4092        -40.0407       -0.0170645         144.375
0.597                   -2.13016        -175.929         -49.3042        -41.8099         -49.3043        -41.8104        -0.017278         144.298
0.598                   -2.17358        -176.604         -49.2006        -43.5848         -49.2006        -43.5852       -0.0174954         144.221
0.599                    -2.2178        -177.282         -49.0981        -45.3645         -49.0982         -45.365       -0.0177165         144.144
0.6                     -2.26282        -177.963         -48.9969        -47.1489          -48.997        -47.1493       -0.0179415         144.067
0.601                   -2.30866        -178.646          -48.897        -48.9376          -48.897        -48.9381       -0.0181704         143.989
0.602                   -2.35534        -179.333         -48.7981        -50.7305         -48.7982        -50.7309       -0.0184031         143.911
0.603                   -2.40288         179.977         -48.7005        -52.5273         -48.7006        -52.5277       -0.0186397         143.833
0.604                    -2.4513         179.285          -48.604        -54.3277         -48.6041        -54.3281       -0.0188802         143.755
0.605                    -2.5006          178.59         -48.5087        -56.1315         -48.5087        -56.1319       -0.0191246         143.676
0.606                   -2.55082         177.891         -48.4144        -57.9383         -48.4145        -57.9387       -0.0193728         143.597
0.607                   -2.60196          177.19         -48.3212         -59.748         -48.3213        -59.7483        -0.019625         143.519
0.608                   -2.65406         176.486         -48.2291        -61.5602         -48.2291        -61.5605       -0.0198811          143.44
0.609                   -2.70712         175.779          -48.138        -63.3746          -48.138        -63.3749       -0.0201412          143.36
0.61                    -2.76117          175.07         -48.0479         -65.191         -48.0479        -65.1914       -0.0204051         143.281
0.611                   -2.81623         174.357         -47.9587        -67.0092         -47.9588        -67.0095        -0.020673         143.201
0.612                   -2.87233         173.642         -47.8705        -68.8287         -47.8706         -68.829       -0.0209449         143.121
0.613                   -2.92947         172.924         -47.7832        -70.6494         -47.7833        -70.6496       -0.0212207         143.041
0.614                   -2.98769         172.204         -47.6968        -72.4709         -47.6968        -72.4712       -0.0215005         142.961
0.615                     -3.047         171.481         -47.6112         -74.293         -47.6112        -74.2933       -0.0217843          142.88
0.616                   -3.10744         170.755         -47.5264        -76.1155         -47.5264        -76.1157       -0.0220721         142.799
0.617                   -3.16901         170.027         -47.4424         -77.938         -47.4424        -77.9382       -0.0223639         142.718
0.618                   -3.23176         169.296         -47.3591        -79.7603         -47.3591        -79.7604       -0.0226598         142.637
0.619                   -3.29569         168.563         -47.2764        -81.5821         -47.2765        -81.5822       -0.0229597         142.555
0.62                    -3.36084         167.827         -47.1945        -83.4031         -47.1945        -83.4032       -0.0232637         142.474
0.621                   -3.42724         167.089         -47.1131        -85.2232         -47.1131        -85.2233       -0.0235718         142.392
0.622                    -3.4949         166.349         -47.0324        -87.0421         -47.0324        -87.0421       -0.0238841         142.309
0.623                   -3.56385         165.607         -46.9521        -88.8595         -46.9521        -88.8595       -0.0242005         142.227
0.624                   -3.63413         164.862         -46.8724        -90.6751         -46.8724        -90.6751       -0.0245211         142.144
0.625                   -3.70575         164.116         -46.7931        -92.4889         -46.7931        -92.4889        -0.024846         142.061
0.626                   -3.77875         163.368         -46.7143        -94.3005         -46.7142        -94.3005       -0.0251751         141.978
0.627                   -3.85315         162.618         -46.6358        -96.1098         -46.6358        -96.1098       -0.0255085         141.895
0.628                   -3.92899         161.866         -46.5576        -97.9166         -46.5576        -97.9165       -0.0258462         141.811
0.629                   -4.00628         161.113         -46.4798        -99.7205         -46.4798        -99.7204       -0.0261883         141.727
0.63                    -4.08507         160.358         -46.4022        -101.522         -46.4022        -101.521       -0.0265349         141.642
0.631                   -4.16539         159.602         -46.3249        -103.319         -46.3249        -103.319       -0.0268859         141.558
0.632                   -4.24725         158.844         -46.2478        -105.114         -46.2477        -105.114       -0.0272415         141.473
0.633                    -4.3307         158.086         -46.1708        -106.905         -46.1707        -106.905       -0.0276016         141.388
0.634                   -4.41577         157.326         -46.0939        -108.693         -46.0938        -108.693       -0.0279664         141.303
0.635                   -4.50248         156.566         -46.0171        -110.477          -46.017        -110.476       -0.0283358         141.217
0.636                   -4.59088         155.805         -45.9404        -112.257         -45.9403        -112.256       -0.0287101         141.131
0.637                   -4.68098         155.044         -45.8636        -114.033         -45.8636        -114.032       -0.0290891         141.045
0.638                   -4.77283         154.283         -45.7869        -115.804         -45.7868        -115.804        -0.029473         140.958
0.639                   -4.86647         153.521         -45.7101        -117.572           -45.71        -117.572       -0.0298619         140.871
0.64                    -4.96191          152.76         -45.6332        -119.335         -45.6331        -119.335       -0.0302558         140.784
0.641                   -5.05921         151.999         -45.5562        -121.094         -45.5561        -121.094       -0.0306548         140.696
0.642                   -5.15839         151.239         -45.4791        -122.848          -45.479        -122.848        -0.031059         140.609
0.643                   -5.25948          150.48         -45.4018        -124.598         -45.4017        -124.597       -0.0314684          140.52
0.644                   -5.36253         149.721         -45.3243        -126.343         -45.3242        -126.342       -0.0318832         140.432
0.645                   -5.46756         148.964         -45.2466        -128.083         -45.2465        -128.083       -0.0323035         140.343
0.646                   -5.57462         148.209         -45.1687        -129.818         -45.1686        -129.818       -0.0327293         140.254
0.647                   -5.68373         147.456         -45.0904        -131.549         -45.0904        -131.549       -0.0331607         140.164
0.648                   -5.79494         146.705         -45.0119        -133.275         -45.0119        -133.274       -0.0335978         140.075
0.649                   -5.90827         145.956         -44.9331        -134.996         -44.9331        -134.995       -0.0340408         139.984
0.65                    -6.02377         145.211          -44.854        -136.712         -44.8539        -136.711       -0.0344898         139.894
0.651                   -6.14147         144.468         -44.7745        -138.423         -44.7744        -138.422       -0.0349448         139.803
0.652                    -6.2614          143.73         -44.6947        -140.129         -44.6946        -140.128        -0.035406         139.712
0.653                    -6.3836         142.995         -44.6144         -141.83         -44.6144         -141.83       -0.0358735          139.62
0.654                    -6.5081         142.265         -44.5338        -143.526         -44.5337        -143.526       -0.0363475         139.528
0.655                   -6.63494          141.54         -44.4528        -145.218         -44.4527        -145.217        -0.036828         139.435
0.656                   -6.76415          140.82         -44.3714        -146.904         -44.3713        -146.904       -0.0373152         139.343
0.657                   -6.89576         140.107         -44.2895        -148.586         -44.2894        -148.585       -0.0378093         139.249
0.658                    -7.0298         139.399         -44.2072        -150.263         -44.2071        -150.262       -0.0383103         139.156
0.659                   -7.16631         138.698         -44.1244        -151.935         -44.1243        -151.934       -0.0388185         139.062
0.66                    -7.30531         138.005         -44.0412        -153.602         -44.0411        -153.602        -0.039334         138.967
0.661                   -7.44683          137.32         -43.9575        -155.265         -43.9574        -155.264        -0.039857         138.872
0.662                    -7.5909         136.643         -43.8733        -156.923         -43.8732        -156.923       -0.0403876         138.777
0.663                   -7.73755         135.976         -43.7887        -158.576         -43.7886        -158.576        -0.040926         138.681
0.664                   -7.88679         135.319         -43.7036        -160.226         -43.7035        -160.225       -0.0414724         138.585
0.665                   -8.03865         134.672          -43.618         -161.87         -43.6179         -161.87        -0.042027         138.488
0.666                   -8.19315         134.036         -43.5319        -163.511         -43.5318        -163.511         -0.04259         138.391
0.667                    -8.3503         133.412         -43.4453        -165.147         -43.4453        -165.147       -0.0431616         138.294
0.668                   -8.51012         132.802         -43.3583        -166.779         -43.3582        -166.779        -0.043742         138.196
0.669                   -8.67262         132.205         -43.2707        -168.407         -43.2707        -168.407       -0.0443314         138.097
0.67                     -8.8378         131.622         -43.1827        -170.032         -43.1827        -170.032       -0.0449301         137.998
0.671                   -9.00566         131.055         -43.0942        -171.652         -43.0942        -171.652       -0.0455382         137.898
0.672                    -9.1762         130.504         -43.0053        -173.269         -43.0053        -173.269       -0.0461561         137.798
0.673                   -9.34942          129.97         -42.9158        -174.882         -42.9158        -174.882        -0.046784         137.698
0.674                    -9.5253         129.455          -42.826        -176.492         -42.8259        -176.492       -0.0474221         137.597
0.675                   -9.70382         128.959         -42.7356        -178.098         -42.7356        -178.098       -0.0480708         137.495
0.676                   -9.88495         128.483         -42.6448        -179.701         -42.6448        -179.701       -0.0487303         137.393
0.677                   -10.0687         128.029         -42.5536         178.698         -42.5536         178.698       -0.0494008          137.29
0.678                   -10.2549         127.598         -42.4619         177.101         -42.4619         177.101       -0.0500828         137.187
0.679                   -10.4436         127.191         -42.3698         175.507         -42.3698         175.507       -0.0507766         137.083
0.68                    -10.6348         126.809         -42.2773         173.915         -42.2773         173.915       -0.0514824         136.979
0.681                   -10.8283         126.453         -42.1843         172.326         -42.1844         172.326       -0.0522006         136.874
0.682                    -11.024         126.125          -42.091         170.739         -42.0911         170.739       -0.0529315         136.768
0.683                    -11.222         125.827         -41.9973         169.154         -41.9974         169.154       -0.0536756         136.662
0.684                   -11.4219         125.559         -41.9032         167.572         -41.9033         167.571       -0.0544332         136.555
0.685                   -11.6238         125.323         -41.8088         165.991         -41.8089         165.991       -0.0552047         136.447
0.686                   -11.8274         125.121          -41.714         164.412         -41.7141         164.412       -0.0559905         136.339
0.687                   -12.0326         124.954         -41.6189         162.835          -41.619         162.835       -0.0567911          136.23
0.688                   -12.2392         124.824         -41.5235         161.259         -41.5236         161.259       -0.0576069         136.121
0.689                    -12.447         124.732         -41.4277         159.685         -41.4278         159.684       -0.0584383         136.011
0.69                    -12.6557         124.679         -41.3317         158.112         -41.3318         158.111       -0.0592859           135.9
0.691                   -12.8651         124.667         -41.2354          156.54         -41.2355         156.539       -0.0601501         135.788
0.692                   -13.0749         124.698         -41.1389         154.968          -41.139         154.967       -0.0610315         135.676
0.693                   -13.2847         124.773         -41.0421         153.397         -41.0422         153.397       -0.0619306         135.563
0.694                   -13.4943         124.893         -40.9451         151.827         -40.9452         151.827       -0.0628479         135.449
0.695                   -13.7032         125.059         -40.8478         150.258          -40.848         150.257       -0.0637841         135.335
0.696                    -13.911         125.273         -40.7504         148.688         -40.7506         148.687       -0.0647397         135.219
0.697                   -14.1173         125.535         -40.6529         147.119         -40.6531         147.118       -0.0657154         135.103