! TOUCHSTONE file generated by CST MICROWAVE STUDIO
! Date and time: Fri Oct  2 19:17:04 2020
! Project name: Scenario_1_Free_Space_out_of_line.cst
! Parameters = {Lambda=346.42; Step_1=17.321; dy1=-328.659; dx1=866; L_HA=400; MT=2.54; Rad_Dielectric=30; Rad_Lower=7.3; Rad_Upper=30; a_HA=580; a_WG=246; b_HA=500; b_WG=121; c_HA=0; c_WG=187; d_feed=85; h_feed=15; h_lower=18; h_upper=40}
! Header version: 2018
! Port assignment regex: !\s*Touchstone port\s*([0-9]+)\s*=\s*(CST MWS port|CST DS port)\s*([0-9]+|Zmin|Zmax)\s*\(\"(.*)\"\)(\s*mode\s*([0-9]+))?.*
! Touchstone port assignment:
! Touchstone port 1 = CST MWS port 1 ("")
! Touchstone port 2 = CST MWS port 2 ("")
# GHz S DB R 50
0.5                      -0.1471        -122.514          -65.202         124.126          -65.202         124.126       -0.0065591         151.158
0.501                  -0.153269        -122.963          -65.018         122.092         -65.0181         122.105      -0.00662663         151.093
0.502                  -0.159645        -123.413         -64.8328         120.047          -64.833         120.071      -0.00669482         151.027
0.503                  -0.166229        -123.865         -64.6465          117.99         -64.6467         118.025      -0.00676368         150.962
0.504                  -0.173024        -124.319         -64.4591         115.921         -64.4594         115.967      -0.00683319         150.896
0.505                  -0.180031        -124.774         -64.2706          113.84         -64.2709         113.896      -0.00690339         150.831
0.506                  -0.187254        -125.231         -64.0811         111.748         -64.0815         111.813      -0.00697426         150.765
0.507                  -0.194692         -125.69         -63.8907         109.644         -63.8911         109.717      -0.00704581         150.699
0.508                  -0.202349        -126.151         -63.6994         107.528         -63.6999         107.609      -0.00711806         150.633
0.509                  -0.210227        -126.613         -63.5073           105.4         -63.5078         105.489        -0.007191         150.568
0.51                   -0.218327        -127.077         -63.3144          103.26         -63.3149         103.356      -0.00726465         150.502
0.511                  -0.226652        -127.543         -63.1208         101.108         -63.1213         101.211      -0.00733901         150.435
0.512                  -0.235202        -128.011         -62.9266         98.9443         -62.9271         99.0531      -0.00741409         150.369
0.513                  -0.243982         -128.48         -62.7318         96.7689         -62.7323         96.8831      -0.00748989         150.303
0.514                  -0.252992        -128.951         -62.5365         94.5816         -62.5369         94.7007      -0.00756643         150.237
0.515                  -0.262234        -129.424         -62.3407         92.3826         -62.3411          92.506      -0.00764371          150.17
0.516                  -0.271711        -129.898         -62.1446         90.1718         -62.1449          90.299      -0.00772175         150.104
0.517                  -0.281424        -130.375         -61.9482         87.9493         -61.9484         88.0798      -0.00780054         150.037
0.518                  -0.291376        -130.853         -61.7515         85.7152         -61.7517         85.8485       -0.0078801         149.971
0.519                  -0.301569        -131.333         -61.5547         83.4695         -61.5547         83.6051      -0.00796043         149.904
0.52                   -0.312005        -131.815         -61.3577         81.2122         -61.3577         81.3498      -0.00804155         149.837
0.521                  -0.322685        -132.298         -61.1608         78.9436         -61.1606         79.0825      -0.00812347          149.77
0.522                  -0.333612        -132.784         -60.9638         76.6637         -60.9636         76.8036      -0.00820619         149.703
0.523                  -0.344788        -133.271          -60.767         74.3725         -60.7666          74.513      -0.00828973         149.636
0.524                  -0.356215         -133.76         -60.5704         72.0703         -60.5698          72.211      -0.00837409         149.569
0.525                  -0.367896        -134.251          -60.374         69.7573         -60.3733         69.8977      -0.00845929         149.502
0.526                  -0.379832        -134.743          -60.178         67.4334         -60.1771         67.5732      -0.00854534         149.434
0.527                  -0.392026        -135.238         -59.9823          65.099         -59.9813         65.2378      -0.00863224         149.367
0.528                  -0.404479        -135.734         -59.7871         62.7542          -59.786         62.8917      -0.00872001         149.299
0.529                  -0.417194        -136.233         -59.5925         60.3992         -59.5912         60.5351      -0.00880867         149.232
0.53                   -0.430173        -136.733         -59.3984         58.0343         -59.3969         58.1682      -0.00889822         149.164
0.531                  -0.443419        -137.235          -59.205         55.6596         -59.2034         55.7913      -0.00898867         149.096
0.532                  -0.456934        -137.739         -59.0123         53.2755         -59.0105         53.4046      -0.00908005         149.028
0.533                  -0.470719        -138.245         -58.8204         50.8821         -58.8185         51.0085      -0.00917235          148.96
0.534                  -0.484778        -138.753         -58.6293         48.4799         -58.6273         48.6032      -0.00926561         148.892
0.535                  -0.499112        -139.262         -58.4391          46.069          -58.437          46.189      -0.00935982         148.824
0.536                  -0.513724        -139.774         -58.2499         43.6497         -58.2476         43.7663      -0.00945501         148.755
0.537                  -0.528617        -140.288         -58.0617         41.2225         -58.0593         41.3355      -0.00955119         148.687
0.538                  -0.543793        -140.803         -57.8745         38.7876          -57.872         38.8967      -0.00964838         148.618
0.539                  -0.559253        -141.321         -57.6884         36.3453         -57.6858         36.4505      -0.00974659          148.55
0.54                   -0.575002        -141.841         -57.5035         33.8961         -57.5008         33.9972      -0.00984583         148.481
0.541                  -0.591041        -142.362         -57.3197         31.4402          -57.317         31.5372      -0.00994613         148.412
0.542                  -0.607373        -142.886         -57.1371         28.9781         -57.1344         29.0708       -0.0100475         148.343
0.543                     -0.624        -143.412         -56.9558         26.5101          -56.953         26.5984         -0.01015         148.274
0.544                  -0.640926        -143.939         -56.7758         24.0365         -56.7729         24.1205       -0.0102535         148.205
0.545                  -0.658153        -144.469          -56.597         21.5578         -56.5941         21.6374       -0.0103582         148.136
0.546                  -0.675683        -145.001         -56.4196         19.0744         -56.4167         19.1495        -0.010464         148.066
0.547                  -0.693521        -145.535         -56.2435         16.5866         -56.2406         16.6573        -0.010571         147.997
0.548                  -0.711668        -146.071         -56.0687         14.0948         -56.0658         14.1611       -0.0106792         147.927
0.549                  -0.730128         -146.61         -55.8953         11.5993         -55.8925         11.6612       -0.0107886         147.858
0.55                   -0.748904         -147.15         -55.7232         9.10061         -55.7204         9.15822       -0.0108992         147.788
0.551                  -0.767998        -147.693         -55.5525         6.59902         -55.5498         6.65237       -0.0110111         147.718
0.552                  -0.787415        -148.238         -55.3832          4.0949         -55.3805         4.14407       -0.0111242         147.648
0.553                  -0.807158        -148.785         -55.2152         1.58859         -55.2126         1.63367       -0.0112386         147.578
0.554                   -0.82723        -149.334         -55.0485       -0.919568         -55.0461       -0.878472       -0.0113544         147.507
0.555                  -0.847635        -149.886         -54.8832        -3.42925         -54.8809        -3.39203       -0.0114715         147.437
0.556                  -0.868377         -150.44         -54.7192        -5.94014          -54.717        -5.90667       -0.0115899         147.366
0.557                  -0.889459        -150.996         -54.5565        -8.45195         -54.5545         -8.4221       -0.0117097         147.296
0.558                  -0.910885        -151.555         -54.3951        -10.9644         -54.3932         -10.938        -0.011831         147.225
0.559                   -0.93266        -152.116          -54.235        -13.4772         -54.2332        -13.4542       -0.0119537         147.154
0.56                   -0.954788        -152.679         -54.0761        -15.9901         -54.0744        -15.9702       -0.0120779         147.083
0.561                  -0.977273        -153.245         -53.9183        -18.5029         -53.9169        -18.4861       -0.0122035         147.012
0.562                   -1.00012        -153.813         -53.7618        -21.0153         -53.7605        -21.0014       -0.0123307         146.941
0.563                   -1.02333        -154.384         -53.6064        -23.5273         -53.6053         -23.516       -0.0124595         146.869
0.564                   -1.04692        -154.958         -53.4522        -26.0385         -53.4512        -26.0297       -0.0125898         146.798
0.565                   -1.07089        -155.534          -53.299        -28.5488         -53.2981        -28.5425       -0.0127218         146.726
0.566                   -1.09523        -156.112         -53.1468        -31.0582         -53.1462         -31.054       -0.0128554         146.654
0.567                   -1.11997        -156.694         -52.9957        -33.5664         -52.9952        -33.5642       -0.0129907         146.582
0.568                    -1.1451        -157.278         -52.8456        -36.0733         -52.8452        -36.0731       -0.0131277          146.51
0.569                   -1.17063        -157.864         -52.6964         -38.579         -52.6962        -38.5804       -0.0132665         146.438
0.57                    -1.19657        -158.454         -52.5481        -41.0833          -52.548        -41.0862       -0.0134071         146.365
0.571                   -1.22293        -159.046         -52.4007        -43.5861         -52.4008        -43.5905       -0.0135494         146.293
0.572                   -1.24971        -159.641         -52.2541        -46.0875         -52.2543        -46.0931       -0.0136937          146.22
0.573                   -1.27692        -160.239         -52.1083        -48.5874         -52.1087        -48.5941       -0.0138398         146.147
0.574                   -1.30457         -160.84         -51.9633        -51.0858         -51.9638        -51.0934       -0.0139879         146.074
0.575                   -1.33267        -161.444          -51.819        -53.5828         -51.8196        -53.5912       -0.0141379         146.001
0.576                   -1.36123        -162.051         -51.6754        -56.0784         -51.6762        -56.0874         -0.01429         145.928
0.577                   -1.39025        -162.661         -51.5326        -58.5725         -51.5334        -58.5822       -0.0144441         145.855
0.578                   -1.41976        -163.274         -51.3903        -61.0654         -51.3912        -61.0754       -0.0146003         145.781
0.579                   -1.44975        -163.891         -51.2487         -63.557         -51.2497        -63.5674       -0.0147586         145.707
0.58                    -1.48024         -164.51         -51.1076        -66.0474         -51.1087         -66.058       -0.0149191         145.633
0.581                   -1.51124        -165.133         -50.9672        -68.5368         -50.9683        -68.5474       -0.0150818         145.559
0.582                   -1.54277         -165.76         -50.8272        -71.0251         -50.8284        -71.0358       -0.0152468         145.485
0.583                   -1.57485        -166.389         -50.6878        -73.5126         -50.6891        -73.5232       -0.0154141         145.411
0.584                   -1.60747        -167.023         -50.5489        -75.9993         -50.5502        -76.0098       -0.0155837         145.336
0.585                   -1.64067        -167.659         -50.4105        -78.4854         -50.4118        -78.4956       -0.0157558         145.262
0.586                   -1.67445          -168.3         -50.2725        -80.9709         -50.2739        -80.9808       -0.0159303         145.187
0.587                   -1.70884        -168.943          -50.135         -83.456         -50.1364        -83.4656       -0.0161072         145.112
0.588                   -1.74385        -169.591          -49.998        -85.9408         -49.9993        -85.9501       -0.0162867         145.037
0.589                   -1.77951        -170.242         -49.8613        -88.4255         -49.8627        -88.4343       -0.0164688         144.961
0.59                    -1.81583        -170.897         -49.7251        -90.9102         -49.7264        -90.9185       -0.0166535         144.886
0.591                   -1.85283        -171.556         -49.5893         -93.395         -49.5906        -93.4028       -0.0168409          144.81
0.592                   -1.89054        -172.219         -49.4539          -95.88         -49.4552        -95.8873        -0.017031         144.734
0.593                   -1.92899        -172.886         -49.3189        -98.3653         -49.3201        -98.3721       -0.0172239         144.658
0.594                   -1.96819        -173.556         -49.1844        -100.851         -49.1855        -100.857       -0.0174196         144.582
0.595                   -2.00818        -174.231         -49.0502        -103.338         -49.0513        -103.343       -0.0176182         144.506
0.596                   -2.04898        -174.909         -48.9164        -105.825         -48.9175         -105.83       -0.0178197         144.429
0.597                   -2.09063        -175.592         -48.7831        -108.313          -48.784        -108.317       -0.0180241         144.352
0.598                   -2.13316        -176.279         -48.6501        -110.802          -48.651        -110.806       -0.0182315         144.275
0.599                   -2.17659        -176.969         -48.5176        -113.291         -48.5184        -113.295        -0.018442         144.198
0.6                     -2.22096        -177.664         -48.3855        -115.782         -48.3863        -115.785       -0.0186556         144.121
0.601                   -2.26631        -178.362         -48.2539        -118.274         -48.2545        -118.277       -0.0188723         144.044
0.602                   -2.31268        -179.065         -48.1227        -120.768         -48.1233         -120.77       -0.0190922         143.966
0.603                    -2.3601        -179.772          -47.992        -123.262         -47.9924        -123.264       -0.0193153         143.888
0.604                   -2.40861         179.518         -47.8617        -125.758         -47.8621        -125.759       -0.0195416          143.81
0.605                   -2.45825         178.804         -47.7319        -128.255         -47.7322        -128.256       -0.0197713         143.731
0.606                   -2.50907         178.086         -47.6026        -130.754         -47.6028        -130.754       -0.0200042         143.653
0.607                    -2.5611         177.365         -47.4738        -133.254         -47.4739        -133.254       -0.0202405         143.574
0.608                   -2.61438          176.64         -47.3455        -135.756         -47.3456        -135.755       -0.0204803         143.495
0.609                   -2.66897         175.912         -47.2178        -138.258         -47.2177        -138.258       -0.0207234         143.416
0.61                    -2.72489          175.18         -47.0906        -140.763         -47.0904        -140.762         -0.02097         143.337
0.611                   -2.78219         174.446          -46.964        -143.268         -46.9637        -143.267         -0.02122         143.257
0.612                   -2.84091          173.71         -46.8379        -145.775         -46.8376        -145.774       -0.0214736         143.177
0.613                    -2.9011         172.971         -46.7124        -148.283          -46.712        -148.282       -0.0217306         143.097
0.614                   -2.96278         172.229         -46.5875        -150.793          -46.587        -150.791       -0.0219912         143.017
0.615                   -3.02598         171.486         -46.4632        -153.303         -46.4627        -153.301       -0.0222554         142.937
0.616                   -3.09075         170.742         -46.3395        -155.815         -46.3389        -155.813       -0.0225231         142.856
0.617                   -3.15711         169.996         -46.2165        -158.327         -46.2158        -158.325       -0.0227944         142.775
0.618                   -3.22508          169.25         -46.0941        -160.841         -46.0933        -160.839       -0.0230692         142.694
0.619                   -3.29468         168.504         -45.9723        -163.355         -45.9715        -163.353       -0.0233477         142.612
0.62                    -3.36592         167.757         -45.8512         -165.87         -45.8503        -165.868       -0.0236297         142.531
0.621                   -3.43882         167.012         -45.7307        -168.385         -45.7298        -168.384       -0.0239154         142.449
0.622                   -3.51337         166.267         -45.6109        -170.901         -45.6099          -170.9       -0.0242046         142.367
0.623                   -3.58957         165.523         -45.4917        -173.417         -45.4907        -173.416       -0.0244975         142.284
0.624                    -3.6674         164.782         -45.3732        -175.934         -45.3722        -175.933        -0.024794         142.202
0.625                   -3.74686         164.042         -45.2553         -178.45         -45.2543        -178.449       -0.0250942         142.119
0.626                   -3.82792         163.306         -45.1381         179.033         -45.1371         179.034        -0.025398         142.036
0.627                   -3.91054         162.572         -45.0215         176.517         -45.0205         176.518       -0.0257055         141.952
0.628                   -3.99469         161.842         -44.9056         174.001         -44.9045         174.002       -0.0260167         141.869
0.629                   -4.08033         161.116         -44.7903         171.485         -44.7892         171.486       -0.0263316         141.785
0.63                     -4.1674         160.393         -44.6756         168.971         -44.6746         168.971       -0.0266502           141.7
0.631                   -4.25587         159.675         -44.5615         166.456         -44.5605         166.457       -0.0269727         141.616
0.632                   -4.34566         158.962         -44.4481         163.943         -44.4471         163.943       -0.0272991         141.531
0.633                   -4.43674         158.253         -44.3352          161.43         -44.3342          161.43       -0.0276294         141.446
0.634                   -4.52902         157.549         -44.2229         158.919         -44.2219         158.919       -0.0279637         141.361
0.635                   -4.62247          156.85         -44.1112         156.409         -44.1102         156.408       -0.0283021         141.275
0.636                   -4.71702         156.155              -44           153.9         -43.9991         153.899       -0.0286447         141.189
0.637                   -4.81261         155.466         -43.8893         151.392         -43.8884         151.391       -0.0289916         141.103
0.638                    -4.9092          154.78         -43.7791         148.886         -43.7783         148.885       -0.0293431         141.016
0.639                   -5.00674           154.1         -43.6694         146.381         -43.6686          146.38       -0.0296992         140.929
0.64                    -5.10519         153.423         -43.5602         143.878         -43.5594         143.877       -0.0300601         140.842
0.641                   -5.20451          152.75         -43.4514         141.376         -43.4507         141.375        -0.030426         140.754
0.642                   -5.30467         152.081         -43.3431         138.876         -43.3423         138.875       -0.0307971         140.666
0.643                   -5.40566         151.415         -43.2351         136.378         -43.2344         136.377       -0.0311737         140.578
0.644                   -5.50747         150.752         -43.1275         133.881         -43.1268          133.88        -0.031556         140.489
0.645                   -5.61009         150.092         -43.0202         131.386         -43.0196         131.385       -0.0319442           140.4
0.646                   -5.71352         149.434         -42.9133         128.893         -42.9127         128.892       -0.0323388         140.311
0.647                   -5.81779         148.778         -42.8066         126.402         -42.8061         126.401       -0.0327399         140.221
0.648                   -5.92292         148.124         -42.7003         123.912         -42.6998         123.911       -0.0331479         140.131
0.649                   -6.02893          147.47         -42.5941         121.424         -42.5937         121.423       -0.0335631         140.041
0.65                    -6.13587         146.818         -42.4883         118.938         -42.4879         118.936        -0.033986          139.95
0.651                   -6.24378         146.166         -42.3826         116.453         -42.3823         116.451       -0.0344168         139.859
0.652                   -6.35272         145.515         -42.2771         113.969         -42.2768         113.968       -0.0348559         139.767
0.653                   -6.46275         144.863         -42.1718         111.487         -42.1715         111.486       -0.0353038         139.675
0.654                   -6.57393         144.212         -42.0666         109.006         -42.0664         109.005       -0.0357608         139.583
0.655                   -6.68635          143.56         -41.9616         106.527         -41.9614         106.526       -0.0362274          139.49
0.656                   -6.80008         142.907         -41.8567         104.049         -41.8565         104.048       -0.0367039         139.397
0.657                    -6.9152         142.254         -41.7519         101.571         -41.7517          101.57       -0.0371908         139.303
0.658                    -7.0318         141.601         -41.6471         99.0948          -41.647          99.094       -0.0376886         139.209
0.659                   -7.14998         140.947         -41.5425         96.6192         -41.5424         96.6184       -0.0381975         139.115
0.66                    -7.26982         140.292         -41.4378         94.1442         -41.4378         94.1435       -0.0387182          139.02
0.661                   -7.39144         139.637         -41.3333         91.6698         -41.3332         91.6691       -0.0392509         138.925
0.662                   -7.51492         138.982         -41.2288         89.1957         -41.2287         89.1951       -0.0397962         138.829
0.663                   -7.64038         138.326         -41.1243         86.7218         -41.1242         86.7213       -0.0403544         138.732
0.664                   -7.76793         137.671         -41.0198         84.2481         -41.0198         84.2476        -0.040926         138.636
0.665                   -7.89766         137.016         -40.9154         81.7742         -40.9154         81.7739       -0.0415114         138.539
0.666                   -8.02971         136.362         -40.8109         79.3002          -40.811         79.2999        -0.042111         138.441
0.667                   -8.16416         135.709         -40.7065         76.8258         -40.7066         76.8255       -0.0427252         138.343
0.668                   -8.30116         135.057         -40.6022         74.3509         -40.6022         74.3507       -0.0433544         138.244
0.669                    -8.4408         134.408         -40.4979         71.8753         -40.4979         71.8751       -0.0439991         138.145
0.67                    -8.58321         133.762         -40.3936         69.3989         -40.3936         69.3988       -0.0446596         138.046
0.671                    -8.7285         133.119         -40.2893         66.9216         -40.2893         66.9215       -0.0453363         137.946
0.672                    -8.8768          132.48         -40.1851         64.4432         -40.1851         64.4431       -0.0460295         137.845
0.673                   -9.02822         131.846          -40.081         61.9636          -40.081         61.9635       -0.0467397         137.744
0.674                   -9.18289         131.218         -39.9769         59.4826         -39.9769         59.4826       -0.0474671         137.642
0.675                   -9.34093         130.596          -39.873         57.0002          -39.873         57.0002       -0.0482123          137.54
0.676                   -9.50245         129.983         -39.7691         54.5163         -39.7691         54.5162       -0.0489753         137.438
0.677                   -9.66758         129.378         -39.6654         52.0307         -39.6654         52.0306       -0.0497568         137.334
0.678                   -9.83643         128.783         -39.5619         49.5433         -39.5619         49.5433       -0.0505568         137.231
0.679                   -10.0091           128.2         -39.4585         47.0541         -39.4585          47.054       -0.0513758         137.126
0.68                    -10.1858         127.629         -39.3553          44.563         -39.3552         44.5629       -0.0522141         137.022
0.681                   -10.3665         127.074         -39.2523           42.07         -39.2522         42.0699       -0.0530719         136.916
0.682                   -10.5513         126.534         -39.1495          39.575         -39.1495         39.5748       -0.0539495          136.81
0.683                   -10.7405         126.012          -39.047          37.078          -39.047         37.0778       -0.0548473         136.704
0.684                    -10.934          125.51         -38.9448         34.5789         -38.9448         34.5787       -0.0557654         136.597
0.685                   -11.1319          125.03          -38.843         32.0779         -38.8429         32.0776       -0.0567042         136.489
0.686                   -11.3343         124.574         -38.7414         29.5748         -38.7413         29.5744       -0.0576639         136.381
0.687                   -11.5413         124.146         -38.6402         27.0697         -38.6401         27.0693       -0.0586448         136.272
0.688                   -11.7528         123.746         -38.5394         24.5628         -38.5393         24.5623        -0.059647         136.162
0.689                    -11.969         123.379          -38.439         22.0539         -38.4389         22.0534       -0.0606708         136.052
0.69                    -12.1897         123.048         -38.3391         19.5433          -38.339         19.5427       -0.0617165         135.941
0.691                    -12.415         122.755         -38.2396         17.0309         -38.2395         17.0303       -0.0627843          135.83
0.692                   -12.6448         122.505         -38.1406          14.517         -38.1405         14.5164       -0.0638743         135.717
0.693                   -12.8789           122.3         -38.0421         12.0017          -38.042         12.0009       -0.0649868         135.605
0.694                   -13.1172         122.145         -37.9442         9.48497          -37.944         9.48421       -0.0661221         135.491
0.695                   -13.3595         122.044         -37.8468         6.96711         -37.8466         6.96631       -0.0672803         135.377
0.696                   -13.6054         122.002         -37.7499         4.44826         -37.7498         4.44742       -0.0684616         135.262
0.697                   -13.8547         122.023         -37.6537         1.92858         -37.6535         1.92771       -0.0696663         135.146