! TOUCHSTONE file generated by CST MICROWAVE STUDIO
! Date and time: Fri Oct  2 16:32:34 2020
! Project name: Scenario_1_Free_Space_out_of_line.cst
! Parameters = {Lambda=346.42; Step_1=17.321; dy1=278.276; dx1=346; L_HA=400; MT=2.54; Rad_Dielectric=30; Rad_Lower=7.3; Rad_Upper=30; a_HA=580; a_WG=246; b_HA=500; b_WG=121; c_HA=0; c_WG=187; d_feed=85; h_feed=15; h_lower=18; h_upper=40}
! Header version: 2018
! Port assignment regex: !\s*Touchstone port\s*([0-9]+)\s*=\s*(CST MWS port|CST DS port)\s*([0-9]+|Zmin|Zmax)\s*\(\"(.*)\"\)(\s*mode\s*([0-9]+))?.*
! Touchstone port assignment:
! Touchstone port 1 = CST MWS port 1 ("")
! Touchstone port 2 = CST MWS port 2 ("")
# GHz S DB R 50
0.5                    -0.150158        -122.714         -62.1811         49.1809         -62.1811         49.1809      -0.00680845         151.096
0.501                   -0.15728         -123.15         -62.0553         47.1702         -62.0553         47.1705      -0.00688347          151.03
0.502                  -0.164518        -123.589         -61.9257          45.164         -61.9257         45.1646      -0.00695865         150.965
0.503                  -0.171877        -124.029         -61.7924          43.163         -61.7925         43.1638      -0.00703404           150.9
0.504                  -0.179359        -124.471         -61.6556         41.1678         -61.6557         41.1689      -0.00710965         150.834
0.505                  -0.186968        -124.915         -61.5154          39.179         -61.5154         39.1804       -0.0071855         150.769
0.506                  -0.194705         -125.36         -61.3719         37.1972          -61.372         37.1988      -0.00726162         150.703
0.507                  -0.202576        -125.808         -61.2253         35.2227         -61.2253         35.2245      -0.00733803         150.637
0.508                  -0.210582        -126.258         -61.0756          33.256         -61.0757         33.2581      -0.00741475         150.572
0.509                  -0.218727         -126.71         -60.9231         31.2975         -60.9232         31.2997      -0.00749181         150.506
0.51                   -0.227015        -127.164         -60.7678         29.3474         -60.7679         29.3498      -0.00756923          150.44
0.511                   -0.23545         -127.62           -60.61         27.4059         -60.6101         27.4085      -0.00764703         150.374
0.512                  -0.244034        -128.078         -60.4497         25.4732         -60.4498         25.4759      -0.00772524         150.308
0.513                  -0.252771        -128.538         -60.2871         23.5493         -60.2872         23.5522      -0.00780387         150.242
0.514                  -0.261666            -129         -60.1223         21.6345         -60.1224         21.6374      -0.00788296         150.175
0.515                  -0.270721        -129.464         -59.9555         19.7285         -59.9556         19.7316      -0.00796252         150.109
0.516                  -0.279942         -129.93         -59.7868         17.8315         -59.7869         17.8347      -0.00804258         150.043
0.517                   -0.28933        -130.399         -59.6163         15.9434         -59.6164         15.9467      -0.00812315         149.976
0.518                  -0.298892        -130.869         -59.4441         14.0639         -59.4443         14.0673      -0.00820428         149.909
0.519                   -0.30863        -131.342         -59.2705          12.193         -59.2706         12.1965      -0.00828596         149.843
0.52                   -0.318549        -131.817         -59.0954         10.3306         -59.0956         10.3341      -0.00836824         149.776
0.521                  -0.328654        -132.295          -58.919         8.47622         -58.9192         8.47979      -0.00845112         149.709
0.522                  -0.338948        -132.774         -58.7415         6.62981         -58.7417         6.63342      -0.00853464         149.642
0.523                  -0.349436        -133.256         -58.5629         4.79105         -58.5631         4.79469      -0.00861882         149.575
0.524                  -0.360122         -133.74         -58.3834         2.95965         -58.3836         2.96332      -0.00870368         149.508
0.525                  -0.371012        -134.227         -58.2029          1.1353         -58.2032         1.13898      -0.00878924         149.441
0.526                  -0.382109        -134.716         -58.0218       -0.682327          -58.022       -0.678637      -0.00887552         149.373
0.527                  -0.393418        -135.207         -57.8399        -2.49357         -57.8402        -2.48988      -0.00896255         149.306
0.528                  -0.404946          -135.7         -57.6575        -4.29877         -57.6577        -4.29509      -0.00905035         149.238
0.529                  -0.416695        -136.196         -57.4746         -6.0983         -57.4749        -6.09464      -0.00913894         149.171
0.53                   -0.428672        -136.694         -57.2913        -7.89253         -57.2916        -7.88889      -0.00922834         149.103
0.531                  -0.440882        -137.195         -57.1077        -9.68183         -57.1079        -9.67821      -0.00931858         149.035
0.532                  -0.453329        -137.698         -56.9238        -11.4666         -56.9241         -11.463      -0.00940968         148.967
0.533                   -0.46602        -138.203         -56.7398        -13.2471           -56.74        -13.2436      -0.00950166         148.899
0.534                   -0.47896        -138.711         -56.5557        -15.0239         -56.5559        -15.0204      -0.00959454         148.831
0.535                  -0.492154        -139.222         -56.3715        -16.7973         -56.3718        -16.7939      -0.00968834         148.763
0.536                  -0.505607        -139.735         -56.1874        -18.5677         -56.1876        -18.5643       -0.0097831         148.694
0.537                  -0.519327         -140.25         -56.0034        -20.3354         -56.0036         -20.332      -0.00987882         148.626
0.538                  -0.533318        -140.768         -55.8195        -22.1008         -55.8197        -22.0975      -0.00997552         148.557
0.539                  -0.547587        -141.289         -55.6359        -23.8643         -55.6361        -23.8611       -0.0100732         148.489
0.54                    -0.56214        -141.812         -55.4525        -25.6262         -55.4527        -25.6231        -0.010172          148.42
0.541                  -0.576983        -142.338         -55.2695         -27.387         -55.2697        -27.3839       -0.0102718         148.351
0.542                  -0.592122        -142.866         -55.0868        -29.1469          -55.087        -29.1439       -0.0103727         148.282
0.543                  -0.607564        -143.397         -54.9046        -30.9063         -54.9048        -30.9034       -0.0104747         148.213
0.544                  -0.623316         -143.93         -54.7229        -32.6655         -54.7231        -32.6627       -0.0105778         148.144
0.545                  -0.639384        -144.467         -54.5417        -34.4248         -54.5419        -34.4221        -0.010682         148.075
0.546                  -0.655775        -145.006          -54.361        -36.1846         -54.3612         -36.182       -0.0107874         148.005
0.547                  -0.672496        -145.547          -54.181        -37.9452         -54.1812        -37.9426        -0.010894         147.936
0.548                  -0.689554        -146.091         -54.0017        -39.7068         -54.0019        -39.7043       -0.0110018         147.866
0.549                  -0.706956        -146.638          -53.823        -41.4697         -53.8232        -41.4673       -0.0111108         147.796
0.55                   -0.724711        -147.188         -53.6451        -43.2341         -53.6453        -43.2318       -0.0112211         147.726
0.551                  -0.742824         -147.74          -53.468        -45.0005         -53.4682        -44.9982       -0.0113326         147.656
0.552                  -0.761304        -148.296         -53.2917        -46.7688         -53.2919        -46.7667       -0.0114454         147.586
0.553                  -0.780159        -148.854         -53.1163        -48.5395         -53.1165        -48.5375       -0.0115596         147.516
0.554                  -0.799396        -149.414         -52.9418        -50.3127         -52.9419        -50.3107        -0.011675         147.446
0.555                  -0.819023        -149.978         -52.7681        -52.0885         -52.7683        -52.0867       -0.0117918         147.375
0.556                  -0.839049        -150.544         -52.5955        -53.8673         -52.5956        -53.8656         -0.01191         147.305
0.557                  -0.859483        -151.113         -52.4238        -55.6492          -52.424        -55.6475       -0.0120296         147.234
0.558                  -0.880331        -151.685         -52.2532        -57.4342         -52.2533        -57.4327       -0.0121506         147.163
0.559                  -0.901603         -152.26         -52.0836        -59.2227         -52.0837        -59.2213        -0.012273         147.092
0.56                   -0.923309        -152.837         -51.9151        -61.0146         -51.9152        -61.0133       -0.0123969         147.021
0.561                  -0.945455        -153.418         -51.7478        -62.8102         -51.7478         -62.809       -0.0125222          146.95
0.562                  -0.968053        -154.001         -51.5815        -64.6095         -51.5816        -64.6084       -0.0126491         146.879
0.563                   -0.99111        -154.587         -51.4165        -66.4127         -51.4165        -66.4116       -0.0127775         146.807
0.564                   -1.01464        -155.176         -51.2526        -68.2197         -51.2527        -68.2187       -0.0129074         146.736
0.565                   -1.03864        -155.768         -51.0899        -70.0306           -51.09        -70.0298       -0.0130388         146.664
0.566                   -1.06313        -156.363         -50.9285        -71.8456         -50.9286        -71.8449       -0.0131719         146.592
0.567                   -1.08813         -156.96         -50.7684        -73.6646         -50.7684         -73.664       -0.0133066          146.52
0.568                   -1.11362        -157.561         -50.6095        -75.4877         -50.6096        -75.4871       -0.0134428         146.448
0.569                   -1.13964        -158.164          -50.452        -77.3148          -50.452        -77.3144       -0.0135808         146.376
0.57                    -1.16619         -158.77         -50.2958         -79.146         -50.2958        -79.1457       -0.0137204         146.303
0.571                   -1.19327        -159.379         -50.1409        -80.9812         -50.1409         -80.981       -0.0138617         146.231
0.572                    -1.2209        -159.991         -49.9873        -82.8205         -49.9874        -82.8203       -0.0140047         146.158
0.573                    -1.2491        -160.606         -49.8352        -84.6637         -49.8352        -84.6636       -0.0141494         146.085
0.574                   -1.27786        -161.224         -49.6844        -86.5109         -49.6844        -86.5109       -0.0142959         146.012
0.575                   -1.30721        -161.845          -49.535        -88.3619          -49.535        -88.3619       -0.0144442         145.939
0.576                   -1.33714        -162.468         -49.3871        -90.2166         -49.3871        -90.2168       -0.0145942         145.866
0.577                   -1.36769        -163.095         -49.2405        -92.0751         -49.2405        -92.0754       -0.0147461         145.792
0.578                   -1.39885        -163.724         -49.0954        -93.9372         -49.0954        -93.9375       -0.0148999         145.719
0.579                   -1.43063        -164.356         -48.9517        -95.8028         -48.9517        -95.8032       -0.0150555         145.645
0.58                    -1.46306        -164.991         -48.8094        -97.6717         -48.8094        -97.6722        -0.015213         145.571
0.581                   -1.49613        -165.629         -48.6686         -99.544         -48.6686        -99.5445       -0.0153725         145.497
0.582                   -1.52987        -166.269         -48.5292        -101.419         -48.5292         -101.42       -0.0155339         145.423
0.583                   -1.56428        -166.913         -48.3912        -103.298         -48.3912        -103.298       -0.0156972         145.349
0.584                   -1.59938        -167.559         -48.2547        -105.179         -48.2546         -105.18       -0.0158626         145.274
0.585                   -1.63519        -168.208         -48.1196        -107.063         -48.1195        -107.064       -0.0160299         145.199
0.586                    -1.6717         -168.86         -47.9859        -108.949         -47.9858         -108.95       -0.0161993         145.125
0.587                   -1.70894        -169.514         -47.8536        -110.838         -47.8535        -110.839       -0.0163708          145.05
0.588                   -1.74692        -170.171         -47.7227        -112.729         -47.7227         -112.73       -0.0165444         144.974
0.589                   -1.78565        -170.831         -47.5932        -114.623         -47.5932        -114.624       -0.0167201         144.899
0.59                    -1.82515        -171.494         -47.4651        -116.518         -47.4651        -116.519        -0.016898         144.824
0.591                   -1.86542        -172.159         -47.3383        -118.415         -47.3383        -118.416       -0.0170781         144.748
0.592                   -1.90648        -172.827         -47.2129        -120.313         -47.2129        -120.314       -0.0172604         144.672
0.593                   -1.94836        -173.497         -47.0889        -122.213         -47.0888        -122.214       -0.0174449         144.596
0.594                   -1.99105         -174.17         -46.9661        -124.114          -46.966        -124.116       -0.0176318          144.52
0.595                   -2.03457        -174.846         -46.8446        -126.017         -46.8446        -126.018       -0.0178209         144.443
0.596                   -2.07894        -175.523         -46.7244         -127.92         -46.7243        -127.921       -0.0180124         144.367
0.597                   -2.12417        -176.204         -46.6054        -129.824         -46.6054        -129.825       -0.0182062          144.29
0.598                   -2.17028        -176.887         -46.4876        -131.729         -46.4876         -131.73       -0.0184025         144.213
0.599                   -2.21728        -177.572         -46.3711        -133.634          -46.371        -133.635       -0.0186013         144.136
0.6                     -2.26518        -178.259         -46.2556        -135.539         -46.2556         -135.54       -0.0188025         144.059
0.601                     -2.314        -178.949         -46.1414        -137.445         -46.1413        -137.446       -0.0190063         143.981
0.602                   -2.36375        -179.641         -46.0282         -139.35         -46.0281        -139.352       -0.0192126         143.903
0.603                   -2.41446         179.665         -45.9161        -141.256          -45.916        -141.257       -0.0194216         143.825
0.604                   -2.46612         178.968          -45.805        -143.161          -45.805        -143.162       -0.0196332         143.747
0.605                   -2.51877          178.27          -45.695        -145.066         -45.6949        -145.067       -0.0198475         143.669
0.606                   -2.57241         177.569         -45.5859        -146.971         -45.5858        -146.972       -0.0200645          143.59
0.607                   -2.62705         176.867         -45.4777        -148.874         -45.4777        -148.875       -0.0202844         143.512
0.608                   -2.68273         176.163         -45.3705        -150.778         -45.3705        -150.779       -0.0205071         143.433
0.609                   -2.73944         175.457         -45.2641         -152.68         -45.2641        -152.681       -0.0207326         143.353
0.61                     -2.7972         174.749         -45.1586        -154.581         -45.1586        -154.582       -0.0209612         143.274
0.611                   -2.85603         174.039         -45.0539        -156.482         -45.0539        -156.483       -0.0211927         143.194
0.612                   -2.91596         173.328           -44.95        -158.381         -44.9499        -158.382       -0.0214273         143.115
0.613                   -2.97698         172.615         -44.8468        -160.279         -44.8467         -160.28        -0.021665         143.035
0.614                   -3.03912         171.901         -44.7442        -162.176         -44.7442        -162.177       -0.0219058         142.954
0.615                   -3.10239         171.185         -44.6424        -164.072         -44.6424        -164.073       -0.0221499         142.874
0.616                    -3.1668         170.468         -44.5412        -165.967         -44.5411        -165.967       -0.0223974         142.793
0.617                   -3.23239          169.75         -44.4405         -167.86         -44.4405         -167.86       -0.0226481         142.712
0.618                   -3.29915         169.031         -44.3404        -169.751         -44.3404        -169.752       -0.0229024         142.631
0.619                   -3.36711          168.31         -44.2409        -171.642         -44.2409        -171.642       -0.0231601         142.549
0.62                    -3.43628         167.589         -44.1418        -173.531         -44.1418        -173.531       -0.0234215         142.468
0.621                   -3.50668         166.867         -44.0432        -175.418         -44.0432        -175.418       -0.0236865         142.386
0.622                   -3.57832         166.144          -43.945        -177.304          -43.945        -177.304       -0.0239553         142.303
0.623                   -3.65122          165.42         -43.8472        -179.188         -43.8472        -179.189       -0.0242279         142.221
0.624                   -3.72539         164.696         -43.7497         178.929         -43.7497         178.928       -0.0245044         142.138
0.625                   -3.80086         163.971         -43.6526         177.047         -43.6526         177.047        -0.024785         142.055
0.626                   -3.87763         163.246         -43.5558         175.167         -43.5558         175.167       -0.0250696         141.972
0.627                   -3.95573         162.521         -43.4592         173.288         -43.4592         173.288       -0.0253585         141.888
0.628                   -4.03516         161.796         -43.3629         171.411         -43.3629         171.411       -0.0256518         141.805
0.629                   -4.11595         161.071         -43.2668         169.535         -43.2668         169.535       -0.0259494          141.72
0.63                    -4.19811         160.346         -43.1709         167.661         -43.1709          167.66       -0.0262516         141.636
0.631                   -4.28166         159.622         -43.0752         165.787         -43.0752         165.787       -0.0265584         141.551
0.632                   -4.36661         158.897         -42.9795         163.915         -42.9795         163.915       -0.0268701         141.467
0.633                   -4.45298         158.174          -42.884         162.044          -42.884         162.045       -0.0271866         141.381
0.634                   -4.54078         157.451         -42.7886         160.175         -42.7886         160.175       -0.0275082         141.296
0.635                   -4.63004         156.729         -42.6932         158.306         -42.6932         158.306       -0.0278349          141.21
0.636                   -4.72076         156.008         -42.5979         156.439         -42.5979         156.439        -0.028167         141.124
0.637                   -4.81296         155.288         -42.5026         154.572         -42.5026         154.573       -0.0285045         141.037
0.638                   -4.90667         154.569         -42.4074         152.707         -42.4074         152.707       -0.0288476         140.951
0.639                   -5.00188         153.852         -42.3121         150.842         -42.3121         150.842       -0.0291966         140.863
0.64                    -5.09863         153.137         -42.2168         148.978         -42.2168         148.978       -0.0295514         140.776
0.641                   -5.19692         152.424         -42.1214         147.115         -42.1214         147.115       -0.0299124         140.688
0.642                   -5.29677         151.712         -42.0261         145.252         -42.0261         145.253       -0.0302796           140.6
0.643                    -5.3982         151.003         -41.9306          143.39         -41.9306         143.391       -0.0306533         140.512
0.644                   -5.50122         150.296         -41.8351         141.529         -41.8351         141.529       -0.0310337         140.423
0.645                   -5.60584         149.592         -41.7395         139.668         -41.7395         139.668        -0.031421         140.334
0.646                    -5.7121          148.89         -41.6438         137.807         -41.6437         137.807       -0.0318153         140.245
0.647                   -5.81999         148.192         -41.5479         135.946         -41.5479         135.947       -0.0322169         140.155
0.648                   -5.92953         147.497          -41.452         134.086          -41.452         134.087        -0.032626         140.065
0.649                   -6.04075         146.805          -41.356         132.226          -41.356         132.227       -0.0330429         139.974
0.65                    -6.15365         146.117         -41.2599         130.366         -41.2598         130.366       -0.0334677         139.883
0.651                   -6.26825         145.432         -41.1636         128.506         -41.1636         128.506       -0.0339008         139.792
0.652                   -6.38456         144.752         -41.0672         126.645         -41.0672         126.646       -0.0343423           139.7
0.653                   -6.50261         144.077         -40.9707         124.785         -40.9707         124.786       -0.0347926         139.608
0.654                    -6.6224         143.405         -40.8741         122.924          -40.874         122.925       -0.0352519         139.516
0.655                   -6.74396         142.739         -40.7773         121.063         -40.7773         121.064       -0.0357205         139.423
0.656                   -6.86728         142.078         -40.6804         119.202         -40.6804         119.202       -0.0361987          139.33
0.657                    -6.9924         141.423         -40.5834          117.34         -40.5834         117.341       -0.0366868         139.236
0.658                   -7.11932         140.773         -40.4863         115.477         -40.4863         115.478       -0.0371851         139.142
0.659                   -7.24806         140.129         -40.3891         113.614         -40.3891         113.615       -0.0376939         139.047
0.66                    -7.37863         139.491         -40.2918         111.751         -40.2918         111.751       -0.0382136         138.952
0.661                   -7.51105         138.861         -40.1944         109.886         -40.1944         109.887       -0.0387446         138.857
0.662                   -7.64532         138.237         -40.0969         108.021         -40.0969         108.022       -0.0392871         138.761
0.663                   -7.78147          137.62         -39.9993         106.155         -39.9993         106.156       -0.0398415         138.665
0.664                    -7.9195         137.012         -39.9017         104.288         -39.9017         104.289       -0.0404082         138.568
0.665                   -8.05943         136.411          -39.804          102.42          -39.804         102.421       -0.0409876         138.471
0.666                   -8.20126         135.819         -39.7062         100.551         -39.7062         100.552       -0.0415801         138.373
0.667                   -8.34502         135.236         -39.6085         98.6815         -39.6084          98.682       -0.0421862         138.275
0.668                    -8.4907         134.662         -39.5107         96.8106         -39.5106          96.811       -0.0428061         138.177
0.669                   -8.63833         134.098         -39.4128         94.9386         -39.4128         94.9389       -0.0434404         138.078
0.67                     -8.7879         133.544          -39.315         93.0654          -39.315         93.0658       -0.0440895         137.978
0.671                   -8.93943             133         -39.2172         91.1911         -39.2172         91.1914       -0.0447538         137.878
0.672                   -9.09292         132.468         -39.1195         89.3157         -39.1195         89.3159       -0.0454339         137.777
0.673                   -9.24837         131.948         -39.0217         87.4391         -39.0217         87.4393       -0.0461301         137.676
0.674                    -9.4058          131.44         -38.9241         85.5612         -38.9241         85.5614        -0.046843         137.575
0.675                    -9.5652         130.944         -38.8265         83.6822         -38.8265         83.6823        -0.047573         137.472
0.676                   -9.72657         130.462          -38.729          81.802          -38.729         81.8021       -0.0483207          137.37
0.677                   -9.88991         129.994         -38.6316         79.9206         -38.6316         79.9206       -0.0490866         137.266
0.678                   -10.0552          129.54         -38.5344          78.038         -38.5344         78.0379       -0.0498712         137.163
0.679                   -10.2225         129.102         -38.4373         76.1542         -38.4373         76.1541        -0.050675         137.058
0.68                    -10.3917         128.679         -38.3403         74.2693         -38.3403         74.2691       -0.0514985         136.953
0.681                   -10.5629         128.274         -38.2435         72.3832         -38.2436          72.383       -0.0523424         136.848
0.682                    -10.736         127.885          -38.147          70.496          -38.147         70.4957       -0.0532072         136.742
0.683                   -10.9109         127.515         -38.0506         68.6078         -38.0506         68.6074       -0.0540933         136.635
0.684                   -11.0878         127.164         -37.9544         66.7185         -37.9544         66.7181       -0.0550014         136.528
0.685                   -11.2665         126.833         -37.8585         64.8282         -37.8585         64.8278       -0.0559321          136.42
0.686                    -11.447         126.522         -37.7628          62.937         -37.7629         62.9365       -0.0568859         136.311
0.687                   -11.6293         126.233         -37.6674         61.0449         -37.6675         61.0443       -0.0578634         136.202
0.688                   -11.8132         125.967         -37.5723          59.152         -37.5724         59.1513       -0.0588652         136.092
0.689                   -11.9989         125.724         -37.4775         57.2583         -37.4775         57.2576       -0.0598919         135.982
0.69                    -12.1861         125.506          -37.383         55.3639         -37.3831         55.3631        -0.060944         135.871
0.691                   -12.3748         125.314         -37.2888         53.4688         -37.2889          53.468       -0.0620221         135.759
0.692                    -12.565         125.149          -37.195         51.5733          -37.195         51.5724       -0.0631268         135.646
0.693                   -12.7564         125.011         -37.1015         49.6772         -37.1016         49.6762       -0.0642588         135.533
0.694                   -12.9491         124.903         -37.0084         47.7808         -37.0084         47.7797       -0.0654185         135.419
0.695                   -13.1429         124.824         -36.9156          45.884         -36.9157         45.8829       -0.0666065         135.305
0.696                   -13.3376         124.778         -36.8232          43.987         -36.8233         43.9859       -0.0678235          135.19
0.697                   -13.5331         124.764         -36.7313         42.0899         -36.7314         42.0888         -0.06907         135.074