! TOUCHSTONE file generated by CST MICROWAVE STUDIO
! Date and time: Fri Oct  2 16:40:14 2020
! Project name: Scenario_1_Free_Space_out_of_line.cst
! Parameters = {Lambda=346.42; Step_1=17.321; dy1=260.935; dx1=520; L_HA=400; MT=2.54; Rad_Dielectric=30; Rad_Lower=7.3; Rad_Upper=30; a_HA=580; a_WG=246; b_HA=500; b_WG=121; c_HA=0; c_WG=187; d_feed=85; h_feed=15; h_lower=18; h_upper=40}
! Header version: 2018
! Port assignment regex: !\s*Touchstone port\s*([0-9]+)\s*=\s*(CST MWS port|CST DS port)\s*([0-9]+|Zmin|Zmax)\s*\(\"(.*)\"\)(\s*mode\s*([0-9]+))?.*
! Touchstone port assignment:
! Touchstone port 1 = CST MWS port 1 ("")
! Touchstone port 2 = CST MWS port 2 ("")
# GHz S DB R 50
0.5                     -0.14765         -122.52         -63.1311        -39.6988         -63.0882        -39.9237       -0.0065891         151.135
0.501                  -0.153567        -122.977         -62.9432         -41.045         -62.9353        -41.6078      -0.00665473          151.07
0.502                  -0.159714        -123.435         -62.7547        -42.4122         -62.7804        -43.2997      -0.00672088         151.004
0.503                  -0.166094        -123.895         -62.5656        -43.8005         -62.6236        -44.9992      -0.00678756         150.939
0.504                  -0.172708        -124.356         -62.3758        -45.2099          -62.465        -46.7063      -0.00685478         150.873
0.505                  -0.179558        -124.819         -62.1854        -46.6405         -62.3045        -48.4208      -0.00692257         150.808
0.506                  -0.186644        -125.283         -61.9945        -48.0923         -62.1421        -50.1429      -0.00699091         150.742
0.507                   -0.19397         -125.75         -61.8029        -49.5652          -61.978        -51.8724      -0.00705984         150.676
0.508                  -0.201536        -126.217         -61.6109        -51.0593         -61.8121        -53.6092      -0.00712935          150.61
0.509                  -0.209345        -126.687         -61.4183        -52.5745         -61.6446        -55.3534      -0.00719947         150.544
0.51                   -0.217398        -127.157         -61.2252        -54.1109         -61.4754        -57.1048       -0.0072702         150.478
0.511                  -0.225696         -127.63         -61.0317        -55.6685         -61.3045        -58.8636      -0.00734155         150.412
0.512                  -0.234242        -128.104         -60.8378        -57.2472         -61.1321        -60.6296      -0.00741354         150.345
0.513                  -0.243037         -128.58         -60.6434        -58.8469         -60.9582        -62.4028      -0.00748619         150.279
0.514                  -0.252082        -129.057         -60.4488        -60.4677         -60.7828        -64.1834      -0.00755949         150.213
0.515                  -0.261381        -129.536         -60.2538        -62.1094          -60.606        -65.9711      -0.00763347         150.146
0.516                  -0.270933        -130.017         -60.0585         -63.772         -60.4279        -67.7662      -0.00770815         150.079
0.517                  -0.280741        -130.499         -59.8629        -65.4554         -60.2484        -69.5686      -0.00778353         150.013
0.518                  -0.290806        -130.983         -59.6672        -67.1595         -60.0677        -71.3782      -0.00785962         149.946
0.519                  -0.301131        -131.469         -59.4714        -68.8842         -59.8857        -73.1953      -0.00793645         149.879
0.52                   -0.311716        -131.956         -59.2754        -70.6293         -59.7026        -75.0197      -0.00801403         149.812
0.521                  -0.322564        -132.445         -59.0795        -72.3947         -59.5185        -76.8515      -0.00809237         149.745
0.522                  -0.333677        -132.935         -58.8835        -74.1802         -59.3333        -78.6907      -0.00817149         149.678
0.523                  -0.345055        -133.427         -58.6876        -75.9856         -59.1472        -80.5375      -0.00825141         149.611
0.524                  -0.356701        -133.921         -58.4918        -77.8108         -58.9602        -82.3918      -0.00833213         149.544
0.525                  -0.368617        -134.417         -58.2962        -79.6555         -58.7723        -84.2537      -0.00841368         149.476
0.526                  -0.380804        -134.914         -58.1008        -81.5195         -58.5837        -86.1232      -0.00849607         149.409
0.527                  -0.393264        -135.413         -57.9057        -83.4025         -58.3944        -88.0003      -0.00857933         149.341
0.528                  -0.405999        -135.913          -57.711        -85.3042         -58.2044        -89.8852      -0.00866346         149.273
0.529                   -0.41901        -136.416         -57.5167        -87.2242         -58.0139        -91.7778      -0.00874848         149.206
0.53                     -0.4323         -136.92         -57.3229        -89.1624         -57.8229        -93.6782      -0.00883442         149.138
0.531                   -0.44587        -137.425         -57.1296        -91.1182         -57.6315        -95.5865      -0.00892129          149.07
0.532                  -0.459722        -137.933          -56.937        -93.0914         -57.4397        -97.5026       -0.0090091         149.002
0.533                  -0.473858        -138.442          -56.745        -95.0815         -57.2476        -99.4266      -0.00909789         148.934
0.534                   -0.48828        -138.953         -56.5538         -97.088         -57.0554        -101.358      -0.00918766         148.865
0.535                   -0.50299        -139.466         -56.3634        -99.1106          -56.863        -103.298      -0.00927844         148.797
0.536                   -0.51799         -139.98         -56.1739        -101.149         -56.6705        -105.246      -0.00937025         148.729
0.537                  -0.533282        -140.496         -55.9853        -103.202          -56.478        -107.202      -0.00946311          148.66
0.538                  -0.548867        -141.014         -55.7977         -105.27         -56.2856        -109.165      -0.00955704         148.591
0.539                  -0.564749        -141.534         -55.6112        -107.352         -56.0934        -111.137      -0.00965206         148.523
0.54                   -0.580928        -142.056         -55.4258        -109.447         -55.9013        -113.116      -0.00974819         148.454
0.541                  -0.597408        -142.579         -55.2415        -111.555         -55.7096        -115.103      -0.00984545         148.385
0.542                   -0.61419        -143.105         -55.0585        -113.675         -55.5182        -117.097      -0.00994387         148.316
0.543                  -0.631277        -143.632         -54.8768        -115.807         -55.3273          -119.1       -0.0100435         148.247
0.544                  -0.648671        -144.161         -54.6964         -117.95         -55.1368         -121.11       -0.0101443         148.177
0.545                  -0.666374        -144.692         -54.5173        -120.103          -54.947        -123.127       -0.0102463         148.108
0.546                  -0.684389        -145.224         -54.3397        -122.266         -54.7577        -125.152       -0.0103496         148.038
0.547                  -0.702718        -145.759         -54.1635        -124.438         -54.5692        -127.184       -0.0104542         147.969
0.548                  -0.721363        -146.296         -53.9887        -126.618         -54.3815        -129.223         -0.01056         147.899
0.549                  -0.740329        -146.834         -53.8155        -128.806         -54.1945        -131.269       -0.0106672         147.829
0.55                   -0.759616        -147.375         -53.6439        -131.001         -54.0085        -133.322       -0.0107758         147.759
0.551                  -0.779228        -147.917         -53.4737        -133.202         -53.8234        -135.382       -0.0108857         147.689
0.552                  -0.799168        -148.462         -53.3052        -135.409         -53.6394        -137.447        -0.010997         147.619
0.553                  -0.819439        -149.008         -53.1382         -137.62         -53.4564        -139.519       -0.0111098         147.549
0.554                  -0.840043        -149.557         -52.9728        -139.836         -53.2745        -141.597        -0.011224         147.478
0.555                  -0.860984        -150.108          -52.809        -142.055         -53.0938        -143.681       -0.0113397         147.408
0.556                  -0.882266         -150.66         -52.6468        -144.277         -52.9143         -145.77        -0.011457         147.337
0.557                  -0.903891        -151.215         -52.4861        -146.501         -52.7361        -147.864       -0.0115758         147.266
0.558                  -0.925863        -151.772         -52.3271        -148.727         -52.5591        -149.963       -0.0116962         147.195
0.559                  -0.948185        -152.331         -52.1696        -150.954         -52.3835        -152.067       -0.0118182         147.124
0.56                   -0.970863        -152.892         -52.0136        -153.181         -52.2093        -154.175       -0.0119418         147.053
0.561                  -0.993898        -153.456         -51.8591        -155.408         -52.0365        -156.287       -0.0120671         146.982
0.562                    -1.0173        -154.021         -51.7061        -157.634         -51.8651        -158.402       -0.0121941          146.91
0.563                   -1.04106        -154.589         -51.5546        -159.859         -51.6952        -160.521       -0.0123229         146.839
0.564                    -1.0652        -155.159         -51.4045        -162.082         -51.5268        -162.643       -0.0124534         146.767
0.565                   -1.08971        -155.732         -51.2557        -164.302         -51.3598        -164.768       -0.0125858         146.695
0.566                    -1.1146        -156.307         -51.1084         -166.52         -51.1944        -166.895         -0.01272         146.623
0.567                   -1.13987        -156.884         -50.9623        -168.735         -51.0305        -169.024       -0.0128561         146.551
0.568                   -1.16554        -157.463         -50.8174        -170.946         -50.8681        -171.155       -0.0129941         146.479
0.569                    -1.1916        -158.045         -50.6738        -173.154         -50.7072        -173.288       -0.0131341         146.406
0.57                    -1.21806         -158.63         -50.5314        -175.357         -50.5479        -175.421        -0.013276         146.334
0.571                   -1.24493        -159.217           -50.39        -177.556           -50.39        -177.556         -0.01342         146.261
0.572                   -1.27221        -159.806         -50.2498         -179.75         -50.2337         -179.69       -0.0135661         146.188
0.573                   -1.29991        -160.398         -50.1105         178.061         -50.0789         178.175       -0.0137142         146.115
0.574                   -1.32804        -160.993         -49.9722         175.878         -49.9256          176.04       -0.0138646         146.042
0.575                    -1.3566         -161.59         -49.8349         173.699         -49.7737         173.905       -0.0140171         145.969
0.576                    -1.3856         -162.19         -49.6983         171.526         -49.6233         171.772       -0.0141718         145.895
0.577                   -1.41504        -162.792         -49.5626         169.359         -49.4743         169.639       -0.0143289         145.822
0.578                   -1.44494        -163.398         -49.4277         167.198         -49.3267         167.507       -0.0144882         145.748
0.579                    -1.4753        -164.006         -49.2935         165.042         -49.1805         165.377       -0.0146499         145.674
0.58                    -1.50613        -164.617         -49.1599         162.892         -49.0356         163.248        -0.014814           145.6
0.581                   -1.53744         -165.23          -49.027         160.747          -48.892         161.121       -0.0149806         145.526
0.582                   -1.56924        -165.847         -48.8946         158.609         -48.7497         158.996       -0.0151497         145.452
0.583                   -1.60154        -166.467         -48.7627         156.476         -48.6086         156.873       -0.0153213         145.377
0.584                   -1.63435        -167.089         -48.6313         154.349         -48.4687         154.753       -0.0154955         145.303
0.585                   -1.66767        -167.715         -48.5004         152.227           -48.33         152.634       -0.0156724         145.228
0.586                   -1.70152        -168.343         -48.3698         150.111         -48.1924         150.519       -0.0158519         145.153
0.587                   -1.73592        -168.975         -48.2396         148.001         -48.0558         148.406       -0.0160342         145.078
0.588                   -1.77086         -169.61         -48.1097         145.895         -47.9203         146.295       -0.0162193         145.002
0.589                   -1.80637        -170.248         -47.9801         143.794         -47.7857         144.188       -0.0164073         144.927
0.59                    -1.84246        -170.889         -47.8507         141.699         -47.6522         142.083       -0.0165981         144.851
0.591                   -1.87914        -171.534         -47.7216         139.608         -47.5195         139.981       -0.0167919         144.775
0.592                   -1.91642        -172.182         -47.5927         137.521         -47.3877         137.882       -0.0169887         144.699
0.593                   -1.95432        -172.833         -47.4639         135.439         -47.2567         135.785       -0.0171885         144.623
0.594                   -1.99285        -173.487         -47.3352          133.36         -47.1264         133.692       -0.0173915         144.546
0.595                   -2.03204        -174.145         -47.2067         131.286         -46.9969         131.601       -0.0175976          144.47
0.596                   -2.07189        -174.807         -47.0783         129.215         -46.8682         129.512        -0.017807         144.393
0.597                   -2.11242        -175.472         -46.9499         127.147           -46.74         127.427       -0.0180196         144.316
0.598                   -2.15365        -176.141         -46.8216         125.083         -46.6125         125.344       -0.0182356         144.239
0.599                   -2.19561        -176.813         -46.6934         123.021         -46.4856         123.263        -0.018455         144.162
0.6                      -2.2383        -177.489         -46.5652         120.962         -46.3592         121.184       -0.0186779         144.084
0.601                   -2.28175        -178.169          -46.437         118.905         -46.2334         119.108       -0.0189043         144.007
0.602                   -2.32598        -178.852         -46.3088          116.85          -46.108         117.034       -0.0191342         143.929
0.603                   -2.37101        -179.539         -46.1807         114.797         -45.9831         114.962       -0.0193679         143.851
0.604                   -2.41687          179.77         -46.0526         112.745         -45.8586         112.891       -0.0196052         143.772
0.605                   -2.46357         179.075         -45.9245         110.695         -45.7345         110.822       -0.0198463         143.694
0.606                   -2.51114         178.377         -45.7964         108.646         -45.6108         108.754       -0.0200912         143.615
0.607                   -2.55961         177.674         -45.6683         106.597         -45.4874         106.688       -0.0203401         143.536
0.608                   -2.60901         176.968         -45.5403         104.548         -45.3643         104.623       -0.0205929         143.457
0.609                   -2.65935         176.258         -45.4123           102.5         -45.2416         102.558       -0.0208498         143.378
0.61                    -2.71068         175.543         -45.2843         100.452         -45.1191         100.495       -0.0211107         143.298
0.611                   -2.76301         174.825         -45.1564         98.4033         -44.9969         98.4316       -0.0213759         143.218
0.612                   -2.81638         174.103         -45.0285         96.3541          -44.875         96.3688       -0.0216453         143.138
0.613                   -2.87082         173.377         -44.9008         94.3041         -44.7533         94.3062       -0.0219189         143.058
0.614                   -2.92636         172.647         -44.7731          92.253         -44.6318         92.2434        -0.022197         142.978
0.615                   -2.98304         171.913         -44.6455         90.2007         -44.5106         90.1805       -0.0224795         142.897
0.616                   -3.04089         171.175         -44.5181         88.1469         -44.3896         88.1171       -0.0227666         142.816
0.617                   -3.09995         170.433         -44.3908         86.0915         -44.2689          86.053       -0.0230582         142.735
0.618                   -3.16026         169.688         -44.2637         84.0341         -44.1483         83.9882       -0.0233545         142.653
0.619                   -3.22184         168.938         -44.1368         81.9748          -44.028         81.9223       -0.0236556         142.572
0.62                    -3.28475         168.185         -44.0101         79.9131         -43.9079         79.8553       -0.0239615          142.49
0.621                   -3.34902         167.428         -43.8836         77.8491          -43.788         77.7869       -0.0242722         142.408
0.622                   -3.41469         166.667         -43.7575         75.7825         -43.6683         75.7171       -0.0245879         142.325
0.623                   -3.48181         165.903         -43.6316         73.7133         -43.5489         73.6455       -0.0249087         142.243
0.624                   -3.55042         165.135         -43.5061         71.6412         -43.4298         71.5722       -0.0252345          142.16
0.625                   -3.62057         164.364         -43.3809         69.5663         -43.3109         69.4968       -0.0255655         142.077
0.626                    -3.6923          163.59         -43.2561         67.4883         -43.1922         67.4194       -0.0259018         141.994
0.627                   -3.76566         162.812         -43.1317         65.4071         -43.0739         65.3397       -0.0262434          141.91
0.628                    -3.8407         162.032         -43.0078         63.3228         -42.9559         63.2577       -0.0265905         141.826
0.629                   -3.91746         161.248         -42.8843         61.2353         -42.8381         61.1733        -0.026943         141.742
0.63                      -3.996         160.462         -42.7614         59.1444         -42.7208         59.0863       -0.0273011         141.657
0.631                   -4.07636         159.673          -42.639         57.0503         -42.6037         56.9966       -0.0276648         141.573
0.632                    -4.1586         158.882         -42.5172         54.9528         -42.4871         54.9043       -0.0280342         141.488
0.633                   -4.24277         158.089         -42.3959          52.852         -42.3708         52.8092       -0.0284094         141.402
0.634                   -4.32893         157.295         -42.2753         50.7479          -42.255         50.7113       -0.0287905         141.317
0.635                   -4.41711         156.498         -42.1554         48.6404         -42.1396         48.6106       -0.0291775         141.231
0.636                   -4.50739         155.701         -42.0362         46.5298         -42.0247         46.5069       -0.0295706         141.145
0.637                   -4.59981         154.902         -41.9177         44.4159         -41.9102         44.4005       -0.0299697         141.058
0.638                   -4.69442         154.103         -41.7999         42.2989         -41.7963         42.2911        -0.030375         140.972
0.639                   -4.79127         153.303         -41.6829         40.1789         -41.6829         40.1789       -0.0307866         140.885
0.64                    -4.89043         152.504         -41.5667         38.0559         -41.5701         38.0639       -0.0312044         140.797
0.641                   -4.99194         151.705         -41.4514         35.9302         -41.4578         35.9461       -0.0316287          140.71
0.642                   -5.09584         150.908         -41.3369         33.8017         -41.3462         33.8256       -0.0320594         140.622
0.643                    -5.2022         150.111         -41.2232         31.6707         -41.2352         31.7024       -0.0324967         140.533
0.644                   -5.31106         149.317         -41.1105         29.5373         -41.1248         29.5767       -0.0329407         140.445
0.645                   -5.42247         148.525         -40.9987         27.4016         -41.0151         27.4486       -0.0333913         140.356
0.646                   -5.53647         147.736         -40.8878         25.2638         -40.9061         25.3181       -0.0338487         140.267
0.647                    -5.6531         146.951         -40.7778         23.1242         -40.7979         23.1854       -0.0343129         140.177
0.648                   -5.77241          146.17         -40.6688         20.9828         -40.6903         21.0506       -0.0347841         140.087
0.649                   -5.89443         145.394         -40.5608           18.84         -40.5835          18.914       -0.0352623         139.997
0.65                     -6.0192         144.623         -40.4537         16.6958         -40.4775         16.7755       -0.0357475         139.906
0.651                   -6.14675         143.858         -40.3477         14.5505         -40.3722         14.6354       -0.0362399         139.815
0.652                   -6.27711         143.101         -40.2426         12.4044         -40.2678          12.494       -0.0367396         139.723
0.653                    -6.4103         142.351         -40.1385         10.2576         -40.1641         10.3513       -0.0372466         139.632
0.654                   -6.54633          141.61         -40.0354         8.11037         -40.0613         8.20754        -0.037761          139.54
0.655                   -6.68523         140.878         -39.9333         5.96293         -39.9593         6.06298       -0.0382829         139.447
0.656                     -6.827         140.156         -39.8322         3.81551         -39.8582         3.91779       -0.0388123         139.354
0.657                   -6.97164         139.445         -39.7321         1.66834         -39.7578         1.77219       -0.0393494         139.261
0.658                   -7.11915         138.747         -39.6329       -0.478354         -39.6583       -0.373605       -0.0398943         139.167
0.659                   -7.26951         138.061         -39.5347        -2.62435         -39.5597        -2.51937        -0.040447         139.073
0.66                    -7.42272         137.389         -39.4374        -4.76942         -39.4619        -4.66487       -0.0410076         138.978
0.661                   -7.57875         136.732         -39.3411        -6.91334         -39.3649         -6.8099       -0.0415763         138.883
0.662                   -7.73755          136.09         -39.2457        -9.05591         -39.2687        -8.95423       -0.0421531         138.788
0.663                    -7.8991         135.466         -39.1512        -11.1969         -39.1734        -11.0976       -0.0427382         138.692
0.664                   -8.06334         134.859         -39.0576        -13.3361         -39.0788        -13.2399       -0.0433316         138.596
0.665                   -8.23021         134.271         -38.9648        -15.4734         -38.9851        -15.3808       -0.0439335         138.499
0.666                   -8.39965         133.703         -38.8728        -17.6084         -38.8922          -17.52       -0.0445441         138.402
0.667                   -8.57156         133.156         -38.7817        -19.7412            -38.8        -19.6575       -0.0451634         138.305
0.668                   -8.74588          132.63         -38.6913        -21.8714         -38.7085         -21.793       -0.0457917         138.207
0.669                   -8.92249         132.128         -38.6017        -23.9989         -38.6178        -23.9263        -0.046429         138.108
0.67                    -9.10128          131.65         -38.5127        -26.1236         -38.5278        -26.0572       -0.0470755         138.009
0.671                   -9.28213         131.197         -38.4245        -28.2453         -38.4385        -28.1855       -0.0477315         137.909
0.672                   -9.46491          130.77         -38.3369        -30.3639         -38.3498         -30.311       -0.0483971         137.809
0.673                   -9.64946          130.37         -38.2499        -32.4792         -38.2618        -32.4336       -0.0490725         137.709
0.674                   -9.83564         129.998         -38.1635        -34.5912         -38.1743        -34.5532       -0.0497579         137.608
0.675                   -10.0233         129.655         -38.0777        -36.6998         -38.0875        -36.6695       -0.0504537         137.506
0.676                   -10.2122         129.342         -37.9924        -38.8048         -38.0012        -38.7824         -0.05116         137.404
0.677                   -10.4021         129.059         -37.9075        -40.9062         -37.9153        -40.8919       -0.0518772         137.301
0.678                    -10.593         128.807         -37.8231        -43.0039           -37.83        -42.9978       -0.0526055         137.198
0.679                   -10.7845         128.588         -37.7391        -45.0979         -37.7451           -45.1       -0.0533453         137.094
0.68                    -10.9764         128.401         -37.6554        -47.1881         -37.6606        -47.1983        -0.054097          136.99
0.681                   -11.1685         128.247         -37.5721        -49.2745         -37.5765        -49.2929       -0.0548608         136.885
0.682                   -11.3605         128.127          -37.489        -51.3571         -37.4928        -51.3835       -0.0556373         136.779
0.683                   -11.5522         128.041         -37.4062        -53.4358         -37.4093        -53.4701       -0.0564268         136.673
0.684                   -11.7432         127.989         -37.3237        -55.5107         -37.3261        -55.5527       -0.0572298         136.566
0.685                   -11.9334         127.971         -37.2413        -57.5819         -37.2432        -57.6313       -0.0580469         136.458
0.686                   -12.1224         127.988          -37.159        -59.6492         -37.1604        -59.7059       -0.0588786          136.35
0.687                     -12.31         128.039         -37.0769        -61.7128         -37.0778        -61.7764       -0.0597254         136.241
0.688                   -12.4958         128.123         -36.9948        -63.7727         -36.9954        -63.8429       -0.0605879         136.132
0.689                   -12.6795         128.242         -36.9128        -65.8289          -36.913        -65.9054       -0.0614669         136.022
0.69                    -12.8609         128.393         -36.8308        -67.8816         -36.8307        -67.9639       -0.0623629         135.911
0.691                   -13.0397         128.577         -36.7487        -69.9307         -36.7484        -70.0185       -0.0632767         135.799
0.692                   -13.2155         128.792         -36.6666        -71.9764         -36.6661        -72.0692       -0.0642092         135.687
0.693                   -13.3882         129.038         -36.5845        -74.0188         -36.5838        -74.1161        -0.065161         135.574
0.694                   -13.5573         129.313         -36.5022        -76.0579         -36.5014        -76.1594       -0.0661332          135.46
0.695                   -13.7227         129.616         -36.4197         -78.094         -36.4189         -78.199       -0.0671265         135.345
0.696                   -13.8841         129.945         -36.3371        -80.1269         -36.3362         -80.235       -0.0681419          135.23
0.697                   -14.0413           130.3         -36.2543         -82.157         -36.2534        -82.2677       -0.0691804         135.113