! TOUCHSTONE file generated by CST MICROWAVE STUDIO
! Date and time: Fri Oct  2 16:54:36 2020
! Project name: Scenario_1_Free_Space_out_of_line.cst
! Parameters = {Lambda=346.42; Step_1=17.321; dy1=243.594; dx1=693; L_HA=400; MT=2.54; Rad_Dielectric=30; Rad_Lower=7.3; Rad_Upper=30; a_HA=580; a_WG=246; b_HA=500; b_WG=121; c_HA=0; c_WG=187; d_feed=85; h_feed=15; h_lower=18; h_upper=40}
! Header version: 2018
! Port assignment regex: !\s*Touchstone port\s*([0-9]+)\s*=\s*(CST MWS port|CST DS port)\s*([0-9]+|Zmin|Zmax)\s*\(\"(.*)\"\)(\s*mode\s*([0-9]+))?.*
! Touchstone port assignment:
! Touchstone port 1 = CST MWS port 1 ("")
! Touchstone port 2 = CST MWS port 2 ("")
# GHz S DB R 50
0.5                    -0.144842        -122.313         -64.4748        -128.861         -64.3349        -129.854      -0.00656497         151.139
0.501                  -0.147403        -122.732          -64.332        -130.823         -64.1854        -131.694       -0.0066229         151.073
0.502                  -0.150201        -123.154         -64.1864        -132.792         -64.0336        -133.542      -0.00668172         151.008
0.503                  -0.153242        -123.579         -64.0379        -134.768         -63.8795        -135.398      -0.00674141         150.943
0.504                   -0.15653        -124.008         -63.8865        -136.749         -63.7231        -137.263        -0.006802         150.877
0.505                  -0.160069        -124.439         -63.7323        -138.737         -63.5645        -139.136      -0.00686347         150.812
0.506                  -0.163864        -124.873         -63.5754         -140.73         -63.4037        -141.016      -0.00692583         150.746
0.507                  -0.167921         -125.31         -63.4157        -142.729         -63.2408        -142.905      -0.00698909         150.681
0.508                  -0.172244         -125.75         -63.2535        -144.733         -63.0757        -144.802      -0.00705325         150.615
0.509                  -0.176838        -126.193         -63.0886        -146.742         -62.9086        -146.707      -0.00711831         150.549
0.51                   -0.181708         -126.64         -62.9212        -148.756         -62.7393         -148.62      -0.00718427         150.483
0.511                  -0.186859        -127.089         -62.7514        -150.775         -62.5681        -150.541      -0.00725114         150.417
0.512                  -0.192296        -127.541         -62.5791        -152.799          -62.395         -152.47      -0.00731893         150.351
0.513                  -0.198023        -127.995         -62.4046        -154.828         -62.2199        -154.407      -0.00738763         150.285
0.514                  -0.204046        -128.453         -62.2277        -156.861         -62.0429        -156.352      -0.00745725         150.219
0.515                   -0.21037        -128.914         -62.0487        -158.898         -61.8641        -158.306      -0.00752779         150.152
0.516                     -0.217        -129.378         -61.8676         -160.94         -61.6835        -160.267      -0.00759927         150.086
0.517                   -0.22394        -129.844         -61.6845        -162.987         -61.5012        -162.237      -0.00767167          150.02
0.518                  -0.231195        -130.314         -61.4993        -165.038         -61.3173        -164.216      -0.00774502         149.953
0.519                  -0.238772        -130.786         -61.3124        -167.094         -61.1317        -166.203       -0.0078193         149.887
0.52                   -0.246674        -131.261         -61.1236        -169.154         -60.9446        -168.199      -0.00789454          149.82
0.521                  -0.254907        -131.739         -60.9331        -171.219          -60.756        -170.204      -0.00797072         149.753
0.522                  -0.263476         -132.22          -60.741        -173.289          -60.566        -172.217      -0.00804787         149.686
0.523                  -0.272385        -132.704         -60.5473        -175.364         -60.3746         -174.24      -0.00812598         149.619
0.524                   -0.28164         -133.19         -60.3522        -177.443         -60.1819        -176.271      -0.00820505         149.552
0.525                  -0.291245         -133.68         -60.1557        -179.528          -59.988        -178.312      -0.00828511         149.485
0.526                  -0.301207        -134.172         -59.9579         178.381         -59.7929         179.637      -0.00836614         149.418
0.527                  -0.311529        -134.667         -59.7589         176.286         -59.5968         177.577      -0.00844817         149.351
0.528                  -0.322216        -135.165         -59.5588         174.184         -59.3996         175.508      -0.00853118         149.283
0.529                  -0.333274        -135.665         -59.3576         172.077         -59.2015         173.428       -0.0086152         149.216
0.53                   -0.344708        -136.168         -59.1555         169.964         -59.0025         171.338      -0.00870023         149.148
0.531                  -0.356521        -136.674         -58.9526         167.845         -58.8027         169.238      -0.00878627          149.08
0.532                   -0.36872        -137.183         -58.7489         165.719         -58.6022         167.128      -0.00887334         149.013
0.533                  -0.381309        -137.694         -58.5446         163.587         -58.4011         165.008      -0.00896143         148.945
0.534                  -0.394292        -138.208         -58.3397         161.448         -58.1994         162.876      -0.00905057         148.877
0.535                  -0.407676        -138.724         -58.1343         159.303         -57.9973         160.735      -0.00914075         148.809
0.536                  -0.421463        -139.244         -57.9285          157.15         -57.7948         158.582      -0.00923199         148.741
0.537                  -0.435659        -139.765         -57.7224          154.99          -57.592         156.418      -0.00932429         148.672
0.538                  -0.450269         -140.29         -57.5161         152.822         -57.3891         154.243      -0.00941767         148.604
0.539                  -0.465297        -140.817         -57.3098         150.647          -57.186         152.058      -0.00951213         148.535
0.54                   -0.480749        -141.346         -57.1033         148.464         -56.9829         149.861      -0.00960768         148.467
0.541                  -0.496627        -141.879          -56.897         146.274         -56.7799         147.652      -0.00970433         148.398
0.542                  -0.512938        -142.413         -56.6909         144.075         -56.5771         145.433       -0.0098021         148.329
0.543                  -0.529685         -142.95          -56.485         141.868         -56.3746         143.202      -0.00990099         148.261
0.544                  -0.546872         -143.49         -56.2794         139.653         -56.1724          140.96        -0.010001         148.192
0.545                  -0.564505        -144.032         -56.0744          137.43         -55.9707         138.707       -0.0101022         148.123
0.546                  -0.582588        -144.577         -55.8698         135.198         -55.7696         136.443       -0.0102045         148.053
0.547                  -0.601124        -145.124          -55.666         132.958         -55.5692         134.167        -0.010308         147.984
0.548                  -0.620118        -145.673         -55.4628          130.71         -55.3695         131.881       -0.0104127         147.915
0.549                  -0.639575        -146.225         -55.2605         128.453         -55.1706         129.584       -0.0105186         147.845
0.55                   -0.659498        -146.779         -55.0591         126.187         -54.9727         127.276       -0.0106256         147.775
0.551                  -0.679891        -147.335         -54.8586         123.914         -54.7759         124.957       -0.0107339         147.706
0.552                  -0.700759        -147.894         -54.6593         121.632         -54.5802         122.629       -0.0108435         147.636
0.553                  -0.722105        -148.455         -54.4612         119.342         -54.3858          120.29       -0.0109542         147.566
0.554                  -0.743933        -149.019         -54.2643         117.044         -54.1926         117.942       -0.0110663         147.496
0.555                  -0.766247        -149.584         -54.0687         114.738         -54.0009         115.584       -0.0111796         147.426
0.556                  -0.789052        -150.152         -53.8746         112.425         -53.8107         113.218       -0.0112942         147.355
0.557                   -0.81235        -150.722          -53.682         110.104         -53.6221         110.843       -0.0114101         147.285
0.558                  -0.836145        -151.295          -53.491         107.776         -53.4351         108.459       -0.0115274         147.214
0.559                  -0.860442        -151.869         -53.3015         105.441         -53.2498         106.068       -0.0116459         147.144
0.56                   -0.885243        -152.446         -53.1138         103.099         -53.0664         103.669       -0.0117659         147.073
0.561                  -0.910553        -153.025         -52.9279         100.751         -52.8848         101.264       -0.0118872         147.002
0.562                  -0.936375        -153.606         -52.7438         98.3975         -52.7051         98.8522       -0.0120099         146.931
0.563                  -0.962711        -154.189         -52.5616         96.0381         -52.5274         96.4347        -0.012134          146.86
0.564                  -0.989567        -154.774         -52.3813         93.6734         -52.3518         94.0121       -0.0122596         146.788
0.565                   -1.01694        -155.361         -52.2031          91.304         -52.1782         91.5848       -0.0123866         146.717
0.566                   -1.04485         -155.95         -52.0268         88.9303         -52.0068         89.1536       -0.0125151         146.645
0.567                   -1.07328        -156.542         -51.8526         86.5526         -51.8374          86.719       -0.0126451         146.574
0.568                   -1.10224        -157.135         -51.6804         84.1715         -51.6703         84.2815       -0.0127765         146.502
0.569                   -1.13174         -157.73         -51.5104         81.7874         -51.5053          81.842       -0.0129096          146.43
0.57                    -1.16178        -158.328         -51.3425         79.4009         -51.3425         79.4009       -0.0130442         146.358
0.571                   -1.19236        -158.927         -51.1768         77.0123          -51.182         76.9589       -0.0131803         146.285
0.572                   -1.22349        -159.528         -51.0132         74.6223         -51.0236         74.5167       -0.0133181         146.213
0.573                   -1.25516        -160.131         -50.8518         72.2313         -50.8674         72.0749       -0.0134575          146.14
0.574                   -1.28738        -160.736         -50.6925         69.8398         -50.7134         69.6341       -0.0135986         146.068
0.575                   -1.32016        -161.343         -50.5353         67.4482         -50.5616         67.1948       -0.0137414         145.995
0.576                    -1.3535        -161.952         -50.3803         65.0572         -50.4119         64.7578       -0.0138858         145.922
0.577                    -1.3874        -162.563         -50.2273         62.6672         -50.2643         62.3236        -0.014032         145.849
0.578                   -1.42186        -163.176         -50.0765         60.2786         -50.1187         59.8927         -0.01418         145.776
0.579                   -1.45689        -163.791         -49.9276         57.8919         -49.9751         57.4656       -0.0143298         145.702
0.58                    -1.49249        -164.407         -49.7808         55.5076         -49.8336          55.043       -0.0144814         145.629
0.581                   -1.52867        -165.025          -49.636         53.1261         -49.6939         52.6252       -0.0146349         145.555
0.582                   -1.56542        -165.646         -49.4931         50.7478         -49.5561         50.2127       -0.0147902         145.481
0.583                   -1.60275        -166.268          -49.352         48.3731           -49.42          47.806       -0.0149475         145.407
0.584                   -1.64067        -166.892         -49.2128         46.0024         -49.2857         45.4053       -0.0151067         145.333
0.585                   -1.67917        -167.517         -49.0754          43.636          -49.153         43.0112        -0.015268         145.258
0.586                   -1.71827        -168.145         -48.9396         41.2743          -49.022         40.6239       -0.0154312         145.184
0.587                   -1.75796        -168.774         -48.8055         38.9175         -48.8924         38.2438       -0.0155966         145.109
0.588                   -1.79825        -169.405          -48.673         36.5659         -48.7643          35.871        -0.015764         145.034
0.589                   -1.83915        -170.038          -48.542         34.2198         -48.6375         33.5058       -0.0159336         144.959
0.59                    -1.88065        -170.673         -48.4124         31.8793          -48.512         31.1484       -0.0161054         144.884
0.591                   -1.92276         -171.31         -48.2842         29.5448         -48.3877          28.799       -0.0162794         144.809
0.592                   -1.96549        -171.949         -48.1573         27.2163         -48.2646         26.4576       -0.0164557         144.733
0.593                   -2.00884        -172.589         -48.0317          24.894         -48.1424         24.1245       -0.0166343         144.657
0.594                   -2.05282        -173.231         -47.9072         22.5779         -48.0213         21.7995       -0.0168152         144.582
0.595                   -2.09742        -173.875         -47.7838         20.2683          -47.901         19.4829       -0.0169986         144.506
0.596                   -2.14266        -174.521         -47.6614         17.9651         -47.7815         17.1745       -0.0171844         144.429
0.597                   -2.18853        -175.169           -47.54         15.6683         -47.6628         14.8744       -0.0173728         144.353
0.598                   -2.23506        -175.819         -47.4194          13.378         -47.5447         12.5824       -0.0175637         144.276
0.599                   -2.28223         -176.47         -47.2997         11.0942         -47.4272         10.2986       -0.0177572         144.199
0.6                     -2.33007        -177.124         -47.1807         8.81683         -47.3103         8.02276       -0.0179534         144.122
0.601                   -2.37856        -177.779         -47.0623         6.54579         -47.1937         5.75479       -0.0181523         144.045
0.602                   -2.42773        -178.437         -46.9446         4.28102         -47.0776         3.49455        -0.018354         143.968
0.603                   -2.47757        -179.096         -46.8274         2.02243         -46.9617         1.24184       -0.0185585          143.89
0.604                    -2.5281        -179.757         -46.7106        -0.23012         -46.8461        -1.00351        -0.018766         143.813
0.605                   -2.57933          179.58         -46.5943        -2.47676         -46.7307        -3.24172       -0.0189764         143.735
0.606                   -2.63125         178.914         -46.4783        -4.71766         -46.6155        -5.47302       -0.0191898         143.656
0.607                   -2.68388         178.247         -46.3627        -6.95298         -46.5003        -7.69766       -0.0194064         143.578
0.608                   -2.73723         177.577         -46.2472        -9.18292         -46.3851        -9.91589       -0.0196261         143.499
0.609                   -2.79131         176.906          -46.132        -11.4077         -46.2699         -12.128       -0.0198491         143.421
0.61                    -2.84612         176.232         -46.0169        -13.6275         -46.1547        -14.3342       -0.0200754         143.342
0.611                   -2.90169         175.557         -45.9019        -15.8425         -46.0393        -16.5349       -0.0203051         143.262
0.612                   -2.95801         174.879         -45.7869        -18.0531         -45.9238        -18.7303       -0.0205382         143.183
0.613                    -3.0151         174.199          -45.672        -20.2594         -45.8081        -20.9208       -0.0207749         143.103
0.614                   -3.07298         173.516          -45.557        -22.4617         -45.6922        -23.1067       -0.0210153         143.023
0.615                   -3.13165         172.832          -45.442        -24.6603          -45.576        -25.2883       -0.0212594         142.943
0.616                   -3.19113         172.145         -45.3268        -26.8554         -45.4596        -27.4659       -0.0215073         142.863
0.617                   -3.25143         171.455         -45.2115        -29.0474         -45.3428        -29.6399       -0.0217591         142.782
0.618                   -3.31258         170.764         -45.0961        -31.2365         -45.2257        -31.8106        -0.022015         142.701
0.619                   -3.37458          170.07         -44.9805        -33.4229         -45.1083        -33.9784       -0.0222749          142.62
0.62                    -3.43745         169.373         -44.8646         -35.607         -44.9904        -36.1436        -0.022539         142.539
0.621                    -3.5012         168.674         -44.7485        -37.7891         -44.8723        -38.3066       -0.0228075         142.457
0.622                   -3.56587         167.973         -44.6322        -39.9695         -44.7537        -40.4676       -0.0230804         142.376
0.623                   -3.63146         167.269         -44.5156        -42.1485         -44.6347        -42.6271       -0.0233578         142.294
0.624                     -3.698         166.563         -44.3987        -44.3263         -44.5153        -44.7854       -0.0236398         142.211
0.625                   -3.76551         165.853         -44.2815        -46.5032         -44.3955        -46.9428       -0.0239266         142.129
0.626                   -3.83401         165.142         -44.1641        -48.6797         -44.2752        -49.0997       -0.0242183         142.046
0.627                   -3.90353         164.427         -44.0463        -50.8558         -44.1546        -51.2564        -0.024515         141.963
0.628                   -3.97409          163.71         -43.9282         -53.032         -44.0336        -53.4133       -0.0248168         141.879
0.629                   -4.04572          162.99         -43.8098        -55.2086         -43.9121        -55.5706       -0.0251239         141.796
0.63                    -4.11844         162.267         -43.6911        -57.3857         -43.7903        -57.7288       -0.0254364         141.712
0.631                   -4.19228         161.542         -43.5721        -59.5638         -43.6681         -59.888       -0.0257545         141.628
0.632                   -4.26729         160.813         -43.4528         -61.743         -43.5455        -62.0488       -0.0260783         141.543
0.633                   -4.34348         160.082         -43.3332        -63.9236         -43.4225        -64.2112       -0.0264079         141.459
0.634                   -4.42089         159.348         -43.2134         -66.106         -43.2992        -66.3757       -0.0267435         141.374
0.635                   -4.49956         158.611         -43.0932        -68.2903         -43.1757        -68.5426       -0.0270853         141.288
0.636                   -4.57952         157.871         -42.9729        -70.4768         -43.0518         -70.712       -0.0274335         141.203
0.637                   -4.66082         157.129         -42.8523        -72.6658         -42.9276        -72.8844       -0.0277881         141.117
0.638                   -4.74349         156.383         -42.7314        -74.8574         -42.8032        -75.0599       -0.0281494         141.031
0.639                   -4.82759         155.634         -42.6104         -77.052         -42.6786        -77.2388       -0.0285175         140.944
0.64                    -4.91315         154.883         -42.4893        -79.2496         -42.5539        -79.4213       -0.0288927         140.857
0.641                   -5.00022         154.128          -42.368        -81.4507         -42.4289        -81.6078       -0.0292751          140.77
0.642                   -5.08885         153.371         -42.2465        -83.6552         -42.3039        -83.7983       -0.0296649         140.683
0.643                   -5.17909         152.611          -42.125        -85.8634         -42.1788         -85.993       -0.0300624         140.595
0.644                   -5.27101         151.848         -42.0035        -88.0756         -42.0536        -88.1923       -0.0304676         140.507
0.645                   -5.36465         151.083         -41.8819        -90.2917         -41.9284        -90.3962       -0.0308809         140.418
0.646                   -5.46008         150.314         -41.7603         -92.512         -41.8033        -92.6049       -0.0313024          140.33
0.647                   -5.55736         149.544         -41.6387        -94.7367         -41.6782        -94.8186       -0.0317324         140.241
0.648                   -5.65655          148.77         -41.5173        -96.9658         -41.5533        -97.0374       -0.0321711         140.151
0.649                   -5.75772         147.995         -41.3959        -99.1994         -41.4285        -99.2613       -0.0326186         140.061
0.65                    -5.86095         147.217         -41.2747        -101.438          -41.304        -101.491       -0.0330753         139.971
0.651                   -5.96631         146.437         -41.1537        -103.681         -41.1797        -103.725       -0.0335414         139.881
0.652                   -6.07387         145.656          -41.033        -105.928         -41.0556        -105.965        -0.034017          139.79
0.653                   -6.18371         144.872         -40.9125        -108.181          -40.932        -108.211       -0.0345025         139.699
0.654                   -6.29593         144.088         -40.7923        -110.438         -40.8087        -110.462       -0.0349981         139.607
0.655                    -6.4106         143.302         -40.6724          -112.7         -40.6859        -112.718       -0.0355041         139.515
0.656                   -6.52781         142.515          -40.553        -114.967         -40.5635         -114.98       -0.0360205         139.423
0.657                   -6.64767         141.728          -40.434        -117.239         -40.4417        -117.247       -0.0365479          139.33
0.658                   -6.77026         140.941         -40.3154        -119.516         -40.3204         -119.52       -0.0370862         139.237
0.659                   -6.89569         140.154         -40.1974        -121.797         -40.1998        -121.798       -0.0376359         139.144
0.66                    -7.02405         139.367         -40.0799        -124.083         -40.0798        -124.081       -0.0381972          139.05
0.661                   -7.15546         138.582          -39.963        -126.373         -39.9605        -126.369       -0.0387702         138.955
0.662                   -7.29003         137.799         -39.8467        -128.668          -39.842        -128.663       -0.0393553         138.861
0.663                   -7.42785         137.018         -39.7311        -130.967         -39.7243        -130.961       -0.0399527         138.766
0.664                   -7.56906         136.241         -39.6162         -133.27         -39.6074        -133.263       -0.0405626          138.67
0.665                   -7.71375         135.467          -39.502        -135.578         -39.4913         -135.57       -0.0411851         138.574
0.666                   -7.86206         134.698         -39.3886        -137.889         -39.3762        -137.882       -0.0418207         138.478
0.667                    -8.0141         133.934         -39.2761        -140.204          -39.262        -140.197       -0.0424693         138.381
0.668                   -8.16999         133.178         -39.1643        -142.522         -39.1488        -142.516       -0.0431313         138.284
0.669                   -8.32984         132.429         -39.0534        -144.843         -39.0366        -144.839       -0.0438069         138.186
0.67                    -8.49379         131.688         -38.9434        -147.168         -38.9253        -147.165       -0.0444961         138.088
0.671                   -8.66194         130.958         -38.8342        -149.495         -38.8152        -149.494       -0.0451991         137.989
0.672                   -8.83442          130.24         -38.7261        -151.825         -38.7061        -151.826       -0.0459162          137.89
0.673                   -9.01133         129.535         -38.6188        -154.157         -38.5981         -154.16       -0.0466473         137.791
0.674                   -9.19279         128.845         -38.5125        -156.491         -38.4911        -156.496       -0.0473927         137.691
0.675                   -9.37889         128.171         -38.4072        -158.827         -38.3853        -158.834       -0.0481523          137.59
0.676                   -9.56972         127.516         -38.3029        -161.164         -38.2806        -161.174       -0.0489264          137.49
0.677                   -9.76537         126.881         -38.1996        -163.502         -38.1771        -163.515       -0.0497149         137.388
0.678                   -9.96591         126.269         -38.0973        -165.841         -38.0746        -165.856       -0.0505179         137.286
0.679                   -10.1714         125.683          -37.996        -168.181         -37.9733        -168.198       -0.0513353         137.184
0.68                    -10.3819         125.125         -37.8957        -170.521         -37.8731        -170.541       -0.0521673         137.081
0.681                   -10.5973         124.597         -37.7964        -172.862          -37.774        -172.883       -0.0530138         136.978
0.682                   -10.8177         124.103         -37.6981        -175.202          -37.676        -175.225       -0.0538747         136.874
0.683                   -11.0431         123.646         -37.6007        -177.541         -37.5791        -177.566       -0.0547501         136.769
0.684                   -11.2734         123.229         -37.5044        -179.879         -37.4833        -179.906       -0.0556399         136.664
0.685                   -11.5083         122.856          -37.409         177.783         -37.3885         177.755        -0.056544         136.559
0.686                   -11.7479          122.53         -37.3145         175.447         -37.2948         175.418       -0.0574625         136.452
0.687                   -11.9918         122.255          -37.221         173.113          -37.202         173.083       -0.0583953         136.346
0.688                   -12.2399         122.036         -37.1283         170.781         -37.1102          170.75       -0.0593423         136.238
0.689                   -12.4916         121.877         -37.0365         168.451         -37.0193          168.42       -0.0603036          136.13
0.69                    -12.7467         121.781         -36.9456         166.123         -36.9294         166.092       -0.0612791         136.022
0.691                   -13.0046         121.753         -36.8555         163.798         -36.8403         163.767       -0.0622689         135.913
0.692                   -13.2647         121.798         -36.7662         161.475          -36.752         161.445       -0.0632731         135.803
0.693                   -13.5263         121.919         -36.6776         159.156         -36.6646         159.127       -0.0642917         135.693
0.694                   -13.7886          122.12         -36.5897          156.84         -36.5779         156.812       -0.0653249         135.582
0.695                   -14.0507         122.406         -36.5026         154.527         -36.4919         154.501       -0.0663729          135.47
0.696                   -14.3115         122.779          -36.416         152.218         -36.4065         152.193       -0.0674359         135.358
0.697                   -14.5699         123.242         -36.3301         149.912         -36.3218          149.89       -0.0685143         135.244