! TOUCHSTONE file generated by CST MICROWAVE STUDIO
! Date and time: Fri Oct  2 16:39:58 2020
! Project name: Scenario_1_Free_Space_out_of_line.cst
! Parameters = {Lambda=346.42; Step_1=17.321; dy1=226.253; dx1=520; L_HA=400; MT=2.54; Rad_Dielectric=30; Rad_Lower=7.3; Rad_Upper=30; a_HA=580; a_WG=246; b_HA=500; b_WG=121; c_HA=0; c_WG=187; d_feed=85; h_feed=15; h_lower=18; h_upper=40}
! Header version: 2018
! Port assignment regex: !\s*Touchstone port\s*([0-9]+)\s*=\s*(CST MWS port|CST DS port)\s*([0-9]+|Zmin|Zmax)\s*\(\"(.*)\"\)(\s*mode\s*([0-9]+))?.*
! Touchstone port assignment:
! Touchstone port 1 = CST MWS port 1 ("")
! Touchstone port 2 = CST MWS port 2 ("")
# GHz S DB R 50
0.5                    -0.148008        -122.646          -62.619        -33.1109         -62.6177        -33.0396      -0.00664147         151.132
0.501                  -0.153124        -123.108         -62.4355        -35.0336         -62.3019        -33.1786       -0.0066965         151.067
0.502                  -0.158503        -123.572          -62.251        -36.9505         -61.9823        -33.4365      -0.00675236         151.001
0.503                  -0.164146        -124.038         -62.0656         -38.862         -61.6599        -33.8117      -0.00680907         150.936
0.504                  -0.170055        -124.505         -61.8794        -40.7683          -61.336        -34.3024      -0.00686664          150.87
0.505                  -0.176231        -124.974         -61.6924        -42.6697         -61.0114        -34.9063      -0.00692507         150.804
0.506                  -0.182675        -125.444         -61.5047        -44.5664         -60.6871        -35.6206      -0.00698437         150.739
0.507                   -0.18939        -125.916         -61.3165        -46.4589          -60.364        -36.4425      -0.00704455         150.673
0.508                  -0.196375        -126.389         -61.1277        -48.3473          -60.043        -37.3688      -0.00710562         150.607
0.509                  -0.203633        -126.864         -60.9385        -50.2319         -59.7246         -38.396      -0.00716758         150.541
0.51                   -0.211166         -127.34         -60.7488        -52.1132         -59.4096        -39.5209      -0.00723044         150.475
0.511                  -0.218973        -127.818         -60.5587        -53.9913         -59.0985        -40.7397      -0.00729422         150.408
0.512                  -0.227057        -128.297         -60.3684        -55.8667          -58.792        -42.0489      -0.00735891         150.342
0.513                  -0.235419        -128.778         -60.1779        -57.7396         -58.4905        -43.4447      -0.00742454         150.276
0.514                  -0.244061        -129.261         -59.9871        -59.6103         -58.1944        -44.9235       -0.0074911         150.209
0.515                  -0.252982        -129.745         -59.7962        -61.4792         -57.9043        -46.4813      -0.00755861         150.143
0.516                  -0.262186         -130.23         -59.6052        -63.3465         -57.6204        -48.1145      -0.00762708         150.076
0.517                  -0.271673        -130.717         -59.4142        -65.2125          -57.343         -49.819      -0.00769651         150.009
0.518                  -0.281444        -131.206         -59.2231        -67.0776         -57.0726        -51.5911      -0.00776692         149.943
0.519                    -0.2915        -131.696         -59.0322         -68.942         -56.8092        -53.4269      -0.00783832         149.876
0.52                   -0.301843        -132.188         -58.8413         -70.806         -56.5531        -55.3224      -0.00791072         149.809
0.521                  -0.312474        -132.681         -58.6505        -72.6699         -56.3046        -57.2737      -0.00798413         149.742
0.522                  -0.323394        -133.176         -58.4599         -74.534         -56.0636        -59.2768      -0.00805856         149.675
0.523                  -0.334604        -133.672         -58.2695        -76.3985         -55.8304         -61.328      -0.00813403         149.607
0.524                  -0.346106         -134.17         -58.0793        -78.2637         -55.6049        -63.4234      -0.00821053          149.54
0.525                  -0.357901        -134.669         -57.8894        -80.1299         -55.3872        -65.5591       -0.0082881         149.473
0.526                  -0.369989         -135.17         -57.6999        -81.9972         -55.1773        -67.7313      -0.00836673         149.405
0.527                  -0.382373        -135.673         -57.5106         -83.866         -54.9751        -69.9365      -0.00844644         149.338
0.528                  -0.395053        -136.177         -57.3217        -85.7364         -54.7805        -72.1709      -0.00852724          149.27
0.529                   -0.40803        -136.682         -57.1333        -87.6086         -54.5935        -74.4313      -0.00860916         149.202
0.53                   -0.421306        -137.189         -56.9453        -89.4829         -54.4138        -76.7141      -0.00869219         149.134
0.531                  -0.434882        -137.698         -56.7577        -91.3595         -54.2412        -79.0161      -0.00877636         149.066
0.532                  -0.448759        -138.209         -56.5706        -93.2385         -54.0757        -81.3344      -0.00886167         148.998
0.533                  -0.462938        -138.721         -56.3841        -95.1202         -53.9168         -83.666      -0.00894815          148.93
0.534                  -0.477421        -139.234         -56.1981        -97.0046         -53.7645        -86.0081      -0.00903581         148.862
0.535                  -0.492209        -139.749         -56.0127         -98.892         -53.6183        -88.3582      -0.00912465         148.794
0.536                  -0.507303        -140.266         -55.8279        -100.783         -53.4781         -90.714      -0.00921471         148.725
0.537                  -0.522704        -140.784         -55.6437        -102.676         -53.3435        -93.0731      -0.00930599         148.657
0.538                  -0.538414        -141.304         -55.4601        -104.573         -53.2142        -95.4337      -0.00939851         148.588
0.539                  -0.554434        -141.826         -55.2772        -106.474         -53.0899        -97.7939      -0.00949229         148.519
0.54                   -0.570766        -142.349          -55.095        -108.378         -52.9703        -100.152      -0.00958734          148.45
0.541                   -0.58741        -142.874         -54.9135        -110.286          -52.855        -102.507      -0.00968368         148.381
0.542                  -0.604369        -143.401         -54.7328        -112.198         -52.7437        -104.857      -0.00978133         148.312
0.543                  -0.621644        -143.929         -54.5528        -114.113         -52.6361          -107.2      -0.00988031         148.243
0.544                  -0.639236         -144.46         -54.3736        -116.033         -52.5318        -109.537      -0.00998063         148.174
0.545                  -0.657147        -144.991         -54.1952        -117.956         -52.4307        -111.866       -0.0100823         148.104
0.546                  -0.675379        -145.525         -54.0176        -119.884         -52.3323        -114.187       -0.0101854         148.035
0.547                  -0.693933         -146.06         -53.8408        -121.815         -52.2363        -116.498       -0.0102899         147.965
0.548                  -0.712811        -146.597         -53.6649        -123.751         -52.1425          -118.8       -0.0103958         147.895
0.549                  -0.732015        -147.136         -53.4898         -125.69         -52.0506        -121.092       -0.0105031         147.826
0.55                   -0.751547        -147.677         -53.3156        -127.634         -51.9604        -123.374       -0.0106119         147.756
0.551                  -0.771409        -148.219         -53.1423        -129.582         -51.8715        -125.646       -0.0107222         147.686
0.552                  -0.791603        -148.763         -52.9699        -131.534         -51.7837        -127.906        -0.010834         147.615
0.553                   -0.81213        -149.309         -52.7985         -133.49         -51.6969        -130.157       -0.0109474         147.545
0.554                  -0.832994        -149.857         -52.6279        -135.451         -51.6107        -132.396       -0.0110622         147.475
0.555                  -0.854196        -150.407         -52.4583        -137.415          -51.525        -134.625       -0.0111787         147.404
0.556                  -0.875739        -150.959         -52.2897        -139.383         -51.4397        -136.844       -0.0112968         147.333
0.557                  -0.897625        -151.513          -52.122        -141.355         -51.3544        -139.053       -0.0114165         147.263
0.558                  -0.919858        -152.069         -51.9552        -143.331         -51.2691        -141.251       -0.0115379         147.192
0.559                  -0.942439        -152.626         -51.7895        -145.311         -51.1835         -143.44       -0.0116609         147.121
0.56                   -0.965372        -153.186         -51.6247        -147.295         -51.0976        -145.618       -0.0117857         147.049
0.561                   -0.98866        -153.748         -51.4609        -149.282         -51.0112        -147.788       -0.0119121         146.978
0.562                   -1.01231        -154.312         -51.2981        -151.273         -50.9242        -149.948       -0.0120404         146.907
0.563                   -1.03631        -154.878         -51.1362        -153.268         -50.8364        -152.099       -0.0121704         146.835
0.564                   -1.06068        -155.446         -50.9754        -155.266         -50.7478        -154.242       -0.0123023         146.763
0.565                   -1.08542        -156.016         -50.8155        -157.267         -50.6583        -156.376        -0.012436         146.692
0.566                   -1.11054        -156.588         -50.6567        -159.272         -50.5677        -158.502       -0.0125715          146.62
0.567                   -1.13602        -157.163         -50.4988         -161.28          -50.476         -160.62        -0.012709         146.547
0.568                   -1.16189         -157.74         -50.3419         -163.29         -50.3832        -162.731       -0.0128485         146.475
0.569                   -1.18815        -158.319          -50.186        -165.304         -50.2891        -164.835       -0.0129899         146.403
0.57                    -1.21479          -158.9         -50.0311        -167.321         -50.1937        -166.932       -0.0131333          146.33
0.571                   -1.24183        -159.484         -49.8771         -169.34         -50.0969        -169.022       -0.0132787         146.258
0.572                   -1.26926         -160.07         -49.7241        -171.362         -49.9988        -171.106       -0.0134263         146.185
0.573                    -1.2971        -160.659          -49.572        -173.387         -49.8992        -173.184       -0.0135759         146.112
0.574                   -1.32536         -161.25         -49.4209        -175.414         -49.7981        -175.256       -0.0137277         146.039
0.575                   -1.35402        -161.844         -49.2708        -177.443         -49.6956        -177.323       -0.0138816         145.965
0.576                   -1.38311         -162.44         -49.1215        -179.474         -49.5916        -179.384       -0.0140378         145.892
0.577                   -1.41263        -163.039         -48.9732         178.492          -49.486         178.559       -0.0141963         145.819
0.578                   -1.44259         -163.64         -48.8257         176.456         -49.3789         176.507        -0.014357         145.745
0.579                   -1.47298        -164.244         -48.6792         174.419         -49.2703          174.46       -0.0145201         145.671
0.58                    -1.50383        -164.851         -48.5335         172.379         -49.1601         172.416       -0.0146855         145.597
0.581                   -1.53513        -165.461         -48.3887         170.338         -49.0484         170.376       -0.0148534         145.523
0.582                    -1.5669        -166.073         -48.2447         168.296         -48.9351          168.34       -0.0150238         145.448
0.583                   -1.59915        -166.688         -48.1016         166.251         -48.8204         166.307       -0.0151966         145.374
0.584                   -1.63188        -167.307         -47.9593         164.205         -48.7041         164.277        -0.015372         145.299
0.585                    -1.6651        -167.928         -47.8177         162.158         -48.5863          162.25         -0.01555         145.225
0.586                   -1.69882        -168.552          -47.677          160.11          -48.467         160.226       -0.0157306          145.15
0.587                   -1.73306        -169.179          -47.537          158.06         -48.3462         158.203        -0.015914         145.074
0.588                   -1.76782        -169.809         -47.3977         156.009          -48.224         156.183          -0.0161         144.999
0.589                   -1.80312        -170.443         -47.2592         153.957         -48.1004         154.164       -0.0162889         144.924
0.59                    -1.83896        -171.079         -47.1213         151.904         -47.9755         152.147       -0.0164806         144.848
0.591                   -1.87537        -171.719         -46.9842          149.85         -47.8491         150.131       -0.0166751         144.772
0.592                   -1.91234        -172.362         -46.8477         147.795         -47.7215         148.117       -0.0168727         144.696
0.593                    -1.9499        -173.009         -46.7119         145.739         -47.5925         146.102       -0.0170732          144.62
0.594                   -1.98806        -173.659         -46.5767         143.682         -47.4624         144.089       -0.0172767         144.543
0.595                   -2.02684        -174.312         -46.4421         141.624          -47.331         142.075       -0.0174834         144.467
0.596                   -2.06624        -174.969         -46.3081         139.566         -47.1984         140.062       -0.0176932          144.39
0.597                   -2.10629        -175.629         -46.1747         137.506         -47.0647         138.048       -0.0179063         144.313
0.598                   -2.14701        -176.293         -46.0418         135.446         -46.9299         136.034       -0.0181226         144.236
0.599                    -2.1884        -176.961         -45.9095         133.385         -46.7941         134.019       -0.0183422         144.159
0.6                      -2.2305        -177.633         -45.7777         131.323         -46.6573         132.003       -0.0185653         144.081
0.601                   -2.27331        -178.308         -45.6464          129.26         -46.5195         129.986       -0.0187918         144.004
0.602                   -2.31686        -178.987         -45.5156         127.196         -46.3808         127.967       -0.0190218         143.926
0.603                   -2.36117         -179.67         -45.3853         125.132         -46.2413         125.947       -0.0192554         143.848
0.604                   -2.40627         179.643         -45.2555         123.067          -46.101         123.925       -0.0194927         143.769
0.605                   -2.45216         178.952         -45.1261             121         -45.9599         121.901       -0.0197337         143.691
0.606                   -2.49888         178.258         -44.9972         118.933         -45.8181         119.874       -0.0199784         143.612
0.607                   -2.54646         177.559         -44.8686         116.865         -45.6757         117.845       -0.0202271         143.533
0.608                   -2.59491         176.856         -44.7405         114.796         -45.5328         115.813       -0.0204796         143.454
0.609                   -2.64426         176.149         -44.6128         112.726         -45.3892         113.779       -0.0207362         143.375
0.61                    -2.69455         175.437         -44.4855         110.655         -45.2452         111.741       -0.0209968         143.295
0.611                    -2.7458         174.722         -44.3585         108.582         -45.1008           109.7       -0.0212616         143.216
0.612                   -2.79804         174.002          -44.232         106.509          -44.956         107.655       -0.0215305         143.136
0.613                    -2.8513         173.278         -44.1058         104.434          -44.811         105.607       -0.0218038         143.055
0.614                   -2.90562          172.55         -43.9799         102.358         -44.6656         103.555       -0.0220815         142.975
0.615                   -2.96102         171.817         -43.8545         100.281         -44.5201         101.499       -0.0223636         142.894
0.616                   -3.01754         171.081         -43.7293         98.2024         -44.3745          99.439       -0.0226502         142.813
0.617                   -3.07522          170.34         -43.6046         96.1224         -44.2288         97.3748       -0.0229414         142.732
0.618                    -3.1341         169.594         -43.4801         94.0409         -44.0831         95.3063       -0.0232373         142.651
0.619                   -3.19422         168.845         -43.3561         91.9578         -43.9374         93.2334       -0.0235381         142.569
0.62                     -3.2556         168.091         -43.2323         89.8731         -43.7919         91.1559       -0.0238436         142.487
0.621                   -3.31831         167.333         -43.1089         87.7868         -43.6466         89.0739       -0.0241541         142.405
0.622                   -3.38237          166.57         -42.9859         85.6988         -43.5014         86.9872       -0.0244697         142.323
0.623                   -3.44783         165.804         -42.8632         83.6091         -43.3566         84.8957       -0.0247903          142.24
0.624                   -3.51474         165.033         -42.7409         81.5175         -43.2121         82.7996       -0.0251162         142.157
0.625                   -3.58315         164.259         -42.6189         79.4241         -43.0681         80.6986       -0.0254473         142.074
0.626                    -3.6531          163.48         -42.4973         77.3287         -42.9245         78.5929       -0.0257839         141.991
0.627                   -3.72464         162.697         -42.3761         75.2315         -42.7814         76.4824       -0.0261259         141.907
0.628                   -3.79782         161.911         -42.2553         73.1322          -42.639         74.3671       -0.0264735         141.823
0.629                    -3.8727         161.121         -42.1348         71.0309         -42.4972         72.2471       -0.0268267         141.739
0.63                    -3.94933         160.328         -42.0148         68.9276         -42.3561         70.1225       -0.0271857         141.655
0.631                   -4.02776         159.531         -41.8951         66.8221         -42.2157         67.9933       -0.0275505          141.57
0.632                   -4.10805         158.731         -41.7759         64.7146         -42.0762         65.8596       -0.0279213         141.485
0.633                   -4.19026         157.927         -41.6571         62.6049         -41.9375         63.7214       -0.0282981           141.4
0.634                   -4.27444         157.121         -41.5388         60.4931         -41.7997          61.579        -0.028681         141.314
0.635                   -4.36066         156.313         -41.4209         58.3792         -41.6629         59.4325       -0.0290702         141.228
0.636                   -4.44897         155.502         -41.3036         56.2631         -41.5271         57.2819       -0.0294657         141.142
0.637                   -4.53943         154.689         -41.1867         54.1449         -41.3923         55.1275       -0.0298676         141.056
0.638                   -4.63211         153.874         -41.0703         52.0245         -41.2586         52.9694        -0.030276         140.969
0.639                   -4.72707         153.057         -40.9544          49.902         -41.1261         50.8079        -0.030691         140.882
0.64                    -4.82438          152.24          -40.839         47.7774         -40.9947          48.643       -0.0311127         140.795
0.641                   -4.92409         151.421         -40.7243         45.6508         -40.8645         46.4752       -0.0315412         140.707
0.642                   -5.02626         150.602           -40.61         43.5222         -40.7356         44.3045       -0.0319766         140.619
0.643                   -5.13097         149.783         -40.4964         41.3915         -40.6079         42.1312        -0.032419         140.531
0.644                   -5.23827         148.965         -40.3834          39.259         -40.4816         39.9556       -0.0328684         140.442
0.645                   -5.34823         148.148          -40.271         37.1246         -40.3565         37.7779        -0.033325         140.353
0.646                    -5.4609         147.332         -40.1592         34.9885         -40.2328         35.5984       -0.0337889         140.264
0.647                   -5.57635         146.518          -40.048         32.8506         -40.1104         33.4173       -0.0342602         140.174
0.648                   -5.69465         145.706         -39.9376         30.7112         -39.9894         31.2351       -0.0347389         140.084
0.649                   -5.81583         144.898         -39.8278         28.5702         -39.8698         29.0518       -0.0352251         139.994
0.65                    -5.93997         144.094         -39.7187         26.4278         -39.7516         26.8678       -0.0357189         139.903
0.651                   -6.06711         143.295         -39.6103         24.2841         -39.6348         24.6835       -0.0362205         139.812
0.652                   -6.19731         142.501         -39.5027         22.1393         -39.5193          22.499       -0.0367299         139.721
0.653                   -6.33061         141.713         -39.3958         19.9933         -39.4053         20.3148       -0.0372471         139.629
0.654                   -6.46706         140.932         -39.2896         17.8465         -39.2927          18.131       -0.0377723         139.537
0.655                   -6.60669         140.159         -39.1842         15.6988         -39.1814          15.948       -0.0383055         139.445
0.656                   -6.74955         139.394         -39.0796         13.5506         -39.0715          13.766       -0.0388469         139.352
0.657                   -6.89566          138.64         -38.9757         11.4018          -38.963         11.5854       -0.0393964         139.258
0.658                   -7.04506         137.896         -38.8727          9.2527         -38.8558         9.40634       -0.0399542         139.165
0.659                   -7.19775         137.163         -38.7704         7.10343           -38.75         7.22917       -0.0405204         139.071
0.66                    -7.35375         136.444          -38.669         4.95416         -38.6455         5.05412        -0.041095         138.976
0.661                   -7.51307         135.739         -38.5683         2.80507         -38.5422         2.88145       -0.0416782         138.881
0.662                   -7.67571         135.048         -38.4685        0.656329         -38.4402        0.711401       -0.0422698         138.786
0.663                   -7.84165         134.374         -38.3694        -1.49188         -38.3395         -1.4558       -0.0428702          138.69
0.664                   -8.01088         133.718         -38.2712        -3.63938         -38.2399        -3.61994       -0.0434792         138.594
0.665                   -8.18337          133.08         -38.1738        -5.78598         -38.1415         -5.7808       -0.0440971         138.498
0.666                   -8.35906         132.462         -38.0772         -7.9315         -38.0442         -7.9382       -0.0447238         138.401
0.667                   -8.53792         131.866         -37.9814        -10.0758         -37.9481        -10.0919       -0.0453594         138.303
0.668                   -8.71987         131.293         -37.8864        -12.2185         -37.8529        -12.2419       -0.0460041         138.205
0.669                   -8.90485         130.744         -37.7921        -14.3597         -37.7588        -14.3878       -0.0466579         138.107
0.67                    -9.09275         130.221         -37.6987         -16.499         -37.6657        -16.5297       -0.0473208         138.008
0.671                   -9.28346         129.725          -37.606        -18.6363         -37.5735        -18.6672       -0.0479931         137.909
0.672                   -9.47687         129.257         -37.5141        -20.7714         -37.4822        -20.8005       -0.0486747         137.809
0.673                   -9.67284          128.82         -37.4229        -22.9041         -37.3918        -22.9293       -0.0493658         137.708
0.674                   -9.87119         128.414         -37.3324        -25.0342         -37.3022        -25.0535       -0.0500665         137.607
0.675                   -10.0718         128.041         -37.2427        -27.1617         -37.2133        -27.1731        -0.050777         137.506
0.676                   -10.2744         127.702         -37.1536        -29.2862         -37.1252        -29.2881       -0.0514973         137.404
0.677                   -10.4788           127.4         -37.0652        -31.4077         -37.0377        -31.3983       -0.0522277         137.302
0.678                   -10.6847         127.134         -36.9775        -33.5259         -36.9509        -33.5038       -0.0529683         137.199
0.679                    -10.892         126.907         -36.8904        -35.6408         -36.8647        -35.6045       -0.0537192         137.095
0.68                    -11.1002          126.72         -36.8038        -37.7522          -36.779        -37.7005       -0.0544808         136.991
0.681                   -11.3092         126.574         -36.7179          -39.86         -36.6938        -39.7917       -0.0552532         136.886
0.682                   -11.5185          126.47         -36.6325         -41.964         -36.6091        -41.8781       -0.0560368         136.781
0.683                   -11.7278          126.41         -36.5476        -44.0641         -36.5248        -43.9598       -0.0568317         136.675
0.684                   -11.9368         126.393         -36.4632        -46.1602         -36.4409        -46.0369       -0.0576384         136.568
0.685                    -12.145          126.42         -36.3792        -48.2522         -36.3573        -48.1093       -0.0584571         136.461
0.686                   -12.3521         126.493         -36.2957        -50.3401          -36.274        -50.1772       -0.0592884         136.353
0.687                   -12.5574         126.611         -36.2125        -52.4236         -36.1909        -52.2406       -0.0601326         136.245
0.688                   -12.7607         126.774         -36.1298        -54.5029         -36.1081        -54.2995       -0.0609902         136.136
0.689                   -12.9615         126.982         -36.0473        -56.5777         -36.0255        -56.3541       -0.0618617         136.026
0.69                    -13.1592         127.236         -35.9652        -58.6481          -35.943        -58.4046       -0.0627477         135.915
0.691                   -13.3533         127.533         -35.8833         -60.714         -35.8607        -60.4508       -0.0636489         135.804
0.692                   -13.5434         127.873         -35.8016        -62.7754         -35.7784        -62.4931       -0.0645659         135.692
0.693                    -13.729         128.254         -35.7201        -64.8322         -35.6961        -64.5314       -0.0654994          135.58
0.694                   -13.9096         128.675         -35.6388        -66.8846         -35.6139        -66.5659       -0.0664503         135.466
0.695                   -14.0847         129.134         -35.5575        -68.9324         -35.5317        -68.5968       -0.0674193         135.352
0.696                   -14.2538         129.629         -35.4764        -70.9756         -35.4494        -70.6242       -0.0684075         135.237
0.697                   -14.4167         130.156         -35.3953        -73.0144          -35.367        -72.6481       -0.0694157         135.121