! TOUCHSTONE file generated by CST MICROWAVE STUDIO
! Date and time: Fri Oct  2 16:31:55 2020
! Project name: Scenario_1_Free_Space_out_of_line.cst
! Parameters = {Lambda=346.42; Step_1=17.321; dy1=208.912; dx1=346; L_HA=400; MT=2.54; Rad_Dielectric=30; Rad_Lower=7.3; Rad_Upper=30; a_HA=580; a_WG=246; b_HA=500; b_WG=121; c_HA=0; c_WG=187; d_feed=85; h_feed=15; h_lower=18; h_upper=40}
! Header version: 2018
! Port assignment regex: !\s*Touchstone port\s*([0-9]+)\s*=\s*(CST MWS port|CST DS port)\s*([0-9]+|Zmin|Zmax)\s*\(\"(.*)\"\)(\s*mode\s*([0-9]+))?.*
! Touchstone port assignment:
! Touchstone port 1 = CST MWS port 1 ("")
! Touchstone port 2 = CST MWS port 2 ("")
# GHz S DB R 50
0.5                     -0.14705        -122.669         -60.9221         63.6288         -60.9221         63.6288       -0.0066811         151.116
0.501                  -0.154356        -123.118         -60.4793         61.3845         -60.4803         61.3808       -0.0067646         151.051
0.502                  -0.161847        -123.569         -60.0639          59.219         -60.0657         59.2123      -0.00684844         150.985
0.503                  -0.169524         -124.02         -59.6732         57.1201         -59.6757         57.1107      -0.00693264          150.92
0.504                  -0.177388        -124.474         -59.3047         55.0776         -59.3077          55.066      -0.00701721         150.854
0.505                  -0.185439        -124.928         -58.9562         53.0833         -58.9597         53.0698      -0.00710214         150.789
0.506                  -0.193678        -125.384         -58.6258         51.1303         -58.6296         51.1153      -0.00718745         150.723
0.507                  -0.202105        -125.842         -58.3119         49.2131          -58.316         49.1967      -0.00727316         150.657
0.508                   -0.21072        -126.301         -58.0129         47.3267         -58.0172         47.3093      -0.00735926         150.591
0.509                  -0.219525        -126.761         -57.7276         45.4672         -57.7321         45.4489      -0.00744576         150.525
0.51                   -0.228519        -127.223         -57.4549          43.631         -57.4595         43.6121      -0.00753268         150.459
0.511                  -0.237703        -127.686         -57.1937         41.8151         -57.1984         41.7957      -0.00762003         150.393
0.512                  -0.247078        -128.151          -56.943         40.0171         -56.9478         39.9973       -0.0077078         150.327
0.513                  -0.256644        -128.618         -56.7021         38.2346         -56.7069         38.2145      -0.00779602         150.261
0.514                  -0.266402        -129.086         -56.4702         36.4656          -56.475         36.4454       -0.0078847         150.195
0.515                  -0.276353        -129.555         -56.2466         34.7084         -56.2514         34.6881      -0.00797383         150.128
0.516                  -0.286497        -130.026         -56.0306         32.9614         -56.0354         32.9412      -0.00806344         150.062
0.517                  -0.296836        -130.499         -55.8218         31.2234         -55.8265         31.2033      -0.00815353         149.995
0.518                  -0.307369        -130.973         -55.6195          29.493         -55.6242          29.473      -0.00824411         149.929
0.519                  -0.318098        -131.449         -55.4234         27.7692          -55.428         27.7494       -0.0083352         149.862
0.52                   -0.329023        -131.927          -55.233         26.0509         -55.2375         26.0315      -0.00842679         149.795
0.521                  -0.340146        -132.406         -55.0478         24.3374         -55.0522         24.3182      -0.00851892         149.728
0.522                  -0.351468        -132.886         -54.8675         22.6278         -54.8718         22.6089      -0.00861157         149.661
0.523                   -0.36299        -133.369         -54.6917         20.9213         -54.6959         20.9029      -0.00870477         149.594
0.524                  -0.374712        -133.853         -54.5202         19.2174         -54.5243         19.1993      -0.00879853         149.527
0.525                  -0.386637        -134.339         -54.3527         17.5154         -54.3566         17.4978      -0.00889285          149.46
0.526                  -0.398765        -134.827         -54.1888         15.8148         -54.1926         15.7976      -0.00898776         149.392
0.527                  -0.411097        -135.316         -54.0283         14.1151          -54.032         14.0984      -0.00908325         149.325
0.528                  -0.423636        -135.808         -53.8709         12.4159         -53.8745         12.3996      -0.00917935         149.257
0.529                  -0.436383        -136.301         -53.7165         10.7167           -53.72         10.7008      -0.00927606          149.19
0.53                   -0.449339        -136.796         -53.5648         9.01717         -53.5681          9.0018       -0.0093734         149.122
0.531                  -0.462507        -137.293         -53.4156         7.31698         -53.4188         7.30209      -0.00947137         149.054
0.532                  -0.475887        -137.791         -53.2688         5.61581         -53.2719         5.60141         -0.00957         148.986
0.533                  -0.489482        -138.292         -53.1242         3.91338         -53.1271         3.89947       -0.0096693         148.918
0.534                  -0.503295        -138.795         -52.9815         2.20945         -52.9843         2.19603      -0.00976927          148.85
0.535                  -0.517327        -139.299         -52.8407        0.503777         -52.8434        0.490846      -0.00986994         148.782
0.536                   -0.53158        -139.806         -52.7016        -1.20385         -52.7042        -1.21629      -0.00997131         148.713
0.537                  -0.546058        -140.314         -52.5641        -2.91361         -52.5666        -2.92556       -0.0100734         148.645
0.538                  -0.560762        -140.825          -52.428        -4.62567         -52.4304        -4.63715       -0.0101762         148.576
0.539                  -0.575696        -141.338         -52.2933         -6.3402         -52.2955         -6.3512       -0.0102798         148.508
0.54                   -0.590862        -141.853         -52.1598        -8.05732         -52.1619        -8.06784       -0.0103841         148.439
0.541                  -0.606263         -142.37         -52.0274        -9.77714         -52.0294        -9.78721       -0.0104892          148.37
0.542                  -0.621903         -142.89          -51.896        -11.4998         -51.8979        -11.5094       -0.0105951         148.301
0.543                  -0.637786        -143.411         -51.7655        -13.2253         -51.7673        -13.2345       -0.0107018         148.232
0.544                  -0.653914        -143.935         -51.6358        -14.9539         -51.6375        -14.9626       -0.0108094         148.163
0.545                  -0.670291        -144.461         -51.5068        -16.6855         -51.5084        -16.6938       -0.0109177         148.094
0.546                  -0.686922         -144.99         -51.3786        -18.4202         -51.3801        -18.4281       -0.0110269         148.024
0.547                  -0.703811        -145.521         -51.2509        -20.1581         -51.2523        -20.1655        -0.011137         147.955
0.548                  -0.720961        -146.054         -51.1237        -21.8991          -51.125        -21.9062        -0.011248         147.885
0.549                  -0.738379         -146.59          -50.997        -23.6434         -50.9983        -23.6501       -0.0113599         147.815
0.55                   -0.756068        -147.128         -50.8707        -25.3909         -50.8719        -25.3972       -0.0114727         147.746
0.551                  -0.774033        -147.669         -50.7448        -27.1417         -50.7458        -27.1476       -0.0115865         147.676
0.552                  -0.792281        -148.212         -50.6191        -28.8958         -50.6201        -28.9013       -0.0117012         147.605
0.553                  -0.810817        -148.758         -50.4937        -30.6531         -50.4946        -30.6582       -0.0118169         147.535
0.554                  -0.829646        -149.307         -50.3684        -32.4136         -50.3693        -32.4184       -0.0119336         147.465
0.555                  -0.848775        -149.858         -50.2434        -34.1774         -50.2441        -34.1819       -0.0120513         147.394
0.556                   -0.86821        -150.412         -50.1184        -35.9444         -50.1191        -35.9486       -0.0121701         147.324
0.557                  -0.887958        -150.969         -49.9935        -37.7146         -49.9942        -37.7184       -0.0122899         147.253
0.558                  -0.908026        -151.528         -49.8687        -39.4879         -49.8693        -39.4915       -0.0124108         147.182
0.559                  -0.928422        -152.091         -49.7439        -41.2644         -49.7444        -41.2677       -0.0125328         147.111
0.56                   -0.949153        -152.656         -49.6191         -43.044         -49.6195         -43.047       -0.0126559          147.04
0.561                  -0.970228        -153.225         -49.4943        -44.8267         -49.4947        -44.8294       -0.0127802         146.969
0.562                  -0.991654        -153.796         -49.3694        -46.6123         -49.3697        -46.6149       -0.0129057         146.898
0.563                   -1.01344         -154.37         -49.2444         -48.401         -49.2447        -48.4033       -0.0130323         146.826
0.564                    -1.0356        -154.948         -49.1194        -50.1926         -49.1197        -50.1947       -0.0131602         146.755
0.565                   -1.05813        -155.528         -48.9943        -51.9871         -48.9945        -51.9889       -0.0132893         146.683
0.566                   -1.08106        -156.112         -48.8691        -53.7844         -48.8692        -53.7861       -0.0134197         146.611
0.567                   -1.10438        -156.699         -48.7438        -55.5846         -48.7439         -55.586       -0.0135514         146.539
0.568                   -1.12812        -157.289         -48.6183        -57.3874         -48.6184        -57.3887       -0.0136845         146.467
0.569                   -1.15228        -157.882         -48.4927         -59.193         -48.4928        -59.1941       -0.0138189         146.395
0.57                    -1.17687        -158.479          -48.367        -61.0012          -48.367        -61.0022       -0.0139546         146.322
0.571                    -1.2019        -159.079         -48.2412         -62.812         -48.2412        -62.8128       -0.0140918          146.25
0.572                    -1.2274        -159.683         -48.1152        -64.6254         -48.1152        -64.6261       -0.0142305         146.177
0.573                   -1.25336         -160.29         -47.9892        -66.4412         -47.9891        -66.4418       -0.0143706         146.104
0.574                   -1.27981          -160.9          -47.863        -68.2595         -47.8629        -68.2599       -0.0145123         146.031
0.575                   -1.30676        -161.514         -47.7366        -70.0802         -47.7365        -70.0805       -0.0146555         145.958
0.576                   -1.33422        -162.132         -47.6102        -71.9032         -47.6101        -71.9034       -0.0148003         145.885
0.577                   -1.36221        -162.753         -47.4837        -73.7285         -47.4836        -73.7286       -0.0149468         145.811
0.578                   -1.39074        -163.378         -47.3571        -75.5561         -47.3569        -75.5561       -0.0150949         145.738
0.579                   -1.41983        -164.006         -47.2304        -77.3858         -47.2302        -77.3858       -0.0152447         145.664
0.58                     -1.4495        -164.638         -47.1037        -79.2177         -47.1035        -79.2176       -0.0153963          145.59
0.581                   -1.47976        -165.274         -46.9769        -81.0517         -46.9767        -81.0515       -0.0155497         145.516
0.582                   -1.51063        -165.914           -46.85        -82.8877         -46.8498        -82.8875       -0.0157049         145.442
0.583                   -1.54214        -166.557         -46.7232        -84.7257         -46.7229        -84.7254        -0.015862         145.367
0.584                   -1.57429        -167.204         -46.5963        -86.5657         -46.5961        -86.5653       -0.0160211         145.293
0.585                    -1.6071        -167.855         -46.4694        -88.4076         -46.4692        -88.4072       -0.0161822         145.218
0.586                   -1.64061         -168.51         -46.3426        -90.2513         -46.3424        -90.2509       -0.0163453         145.143
0.587                   -1.67482        -169.168         -46.2158        -92.0968         -46.2156        -92.0964       -0.0165105         145.068
0.588                   -1.70976        -169.831         -46.0891        -93.9441         -46.0889        -93.9437       -0.0166779         144.993
0.589                   -1.74545        -170.497         -45.9625        -95.7932         -45.9622        -95.7927       -0.0168476         144.917
0.59                    -1.78191        -171.167         -45.8359        -97.6439         -45.8357        -97.6434       -0.0170195         144.842
0.591                   -1.81917        -171.841         -45.7095        -99.4962         -45.7093        -99.4958       -0.0171938         144.766
0.592                   -1.85725        -172.519         -45.5832         -101.35          -45.583         -101.35       -0.0173706          144.69
0.593                   -1.89616          -173.2         -45.4571        -103.206         -45.4569        -103.205       -0.0175498         144.614
0.594                   -1.93594        -173.886         -45.3312        -105.063          -45.331        -105.062       -0.0177317         144.537
0.595                   -1.97662        -174.575         -45.2055        -106.921         -45.2053        -106.921       -0.0179162         144.461
0.596                    -2.0182        -175.268           -45.08        -108.781         -45.0798         -108.78       -0.0181035         144.384
0.597                   -2.06073        -175.965         -44.9548        -110.642         -44.9545        -110.642       -0.0182936         144.307
0.598                   -2.10422        -176.665         -44.8298        -112.505         -44.8296        -112.504       -0.0184867          144.23
0.599                   -2.14871        -177.369         -44.7051        -114.368         -44.7049        -114.368       -0.0186827         144.153
0.6                     -2.19421        -178.077         -44.5807        -116.233         -44.5805        -116.233       -0.0188819         144.075
0.601                   -2.24077        -178.788         -44.4566          -118.1         -44.4564        -118.099       -0.0190843         143.998
0.602                   -2.28839        -179.502         -44.3329        -119.967         -44.3327        -119.967         -0.01929          143.92
0.603                   -2.33712          179.78         -44.2096        -121.835         -44.2094        -121.835       -0.0194991         143.842
0.604                   -2.38697         179.058         -44.0866        -123.705         -44.0864        -123.704       -0.0197118         143.764
0.605                   -2.43799         178.334          -43.964        -125.575         -43.9639        -125.575        -0.019928         143.685
0.606                   -2.49019         177.606         -43.8419        -127.446         -43.8417        -127.446        -0.020148         143.606
0.607                    -2.5436         176.875         -43.7202        -129.318           -43.72        -129.318       -0.0203717         143.527
0.608                   -2.59825         176.142         -43.5989        -131.191         -43.5988        -131.191       -0.0205994         143.448
0.609                   -2.65418         175.405         -43.4782        -133.065         -43.4781        -133.065        -0.020831         143.369
0.61                     -2.7114         174.666         -43.3579        -134.939         -43.3578        -134.939       -0.0210668         143.289
0.611                   -2.76996         173.924         -43.2381        -136.814          -43.238        -136.814       -0.0213067          143.21
0.612                   -2.82986          173.18         -43.1189         -138.69         -43.1188         -138.69       -0.0215508          143.13
0.613                   -2.89115         172.433         -43.0002        -140.566         -43.0001        -140.566       -0.0217992         143.049
0.614                   -2.95386         171.685          -42.882        -142.442         -42.8819        -142.442       -0.0220519         142.969
0.615                     -3.018         170.934         -42.7644        -144.319         -42.7643        -144.319       -0.0223091         142.888
0.616                    -3.0836         170.182         -42.6474        -146.196         -42.6473        -146.196       -0.0225706         142.807
0.617                    -3.1507         169.428         -42.5309        -148.074         -42.5309        -148.074       -0.0228366         142.726
0.618                   -3.21931         168.673         -42.4151        -149.951          -42.415        -149.951       -0.0231069         142.645
0.619                   -3.28946         167.916         -42.2998        -151.829         -42.2998        -151.829       -0.0233817         142.563
0.62                    -3.36118         167.159         -42.1852        -153.707         -42.1852        -153.707       -0.0236608         142.481
0.621                   -3.43449         166.401         -42.0712        -155.585         -42.0712        -155.585       -0.0239442         142.399
0.622                   -3.50942         165.642         -41.9578        -157.462         -41.9578        -157.462       -0.0242318         142.317
0.623                   -3.58598         164.884          -41.845         -159.34          -41.845         -159.34       -0.0245237         142.234
0.624                   -3.66419         164.125         -41.7329        -161.217         -41.7329        -161.217       -0.0248196         142.152
0.625                   -3.74408         163.366         -41.6214        -163.094         -41.6214        -163.094       -0.0251195         142.069
0.626                   -3.82566         162.608         -41.5106        -164.971         -41.5106        -164.971       -0.0254234         141.985
0.627                   -3.90896         161.851         -41.4004        -166.847         -41.4004        -166.847       -0.0257311         141.902
0.628                   -3.99398         161.095         -41.2909        -168.723         -41.2909        -168.723       -0.0260425         141.818
0.629                   -4.08075          160.34          -41.182        -170.598          -41.182        -170.598       -0.0263576         141.734
0.63                    -4.16927         159.587         -41.0737        -172.473         -41.0738        -172.473       -0.0266764         141.649
0.631                   -4.25956         158.835         -40.9661        -174.347         -40.9662        -174.347       -0.0269987         141.565
0.632                   -4.35163         158.086         -40.8592         -176.22         -40.8592         -176.22       -0.0273245          141.48
0.633                   -4.44549          157.34         -40.7529        -178.093         -40.7529        -178.093       -0.0276537         141.394
0.634                   -4.54114         156.597         -40.6472        -179.964         -40.6472        -179.964       -0.0279865         141.309
0.635                   -4.63859         155.856         -40.5422         178.165         -40.5422         178.165       -0.0283229         141.223
0.636                   -4.73785          155.12         -40.4377         176.295         -40.4378         176.295       -0.0286628         141.137
0.637                   -4.83891         154.387         -40.3339         174.426          -40.334         174.427       -0.0290063          141.05
0.638                   -4.94178         153.658         -40.2308         172.559         -40.2308         172.559       -0.0293535         140.964
0.639                   -5.04646         152.934         -40.1282         170.692         -40.1282         170.692       -0.0297046         140.877
0.64                    -5.15294         152.215         -40.0262         168.827         -40.0263         168.827       -0.0300597         140.789
0.641                   -5.26122         151.501         -39.9248         166.963         -39.9249         166.963       -0.0304188         140.702
0.642                    -5.3713         150.792          -39.824           165.1         -39.8241           165.1       -0.0307823         140.614
0.643                   -5.48315          150.09         -39.7238         163.238         -39.7238         163.239       -0.0311501         140.525
0.644                   -5.59679         149.394         -39.6241         161.378         -39.6241         161.379       -0.0315226         140.436
0.645                   -5.71218         148.704         -39.5249         159.519          -39.525          159.52          -0.0319         140.347
0.646                   -5.82933         148.021         -39.4263         157.662         -39.4264         157.662       -0.0322823         140.258
0.647                    -5.9482         147.346         -39.3282         155.806         -39.3283         155.807         -0.03267         140.168
0.648                    -6.0688         146.678         -39.2307         153.952         -39.2307         153.952       -0.0330631         140.078
0.649                   -6.19109         146.018         -39.1336         152.099         -39.1336         152.099        -0.033462         139.988
0.65                    -6.31505         145.366          -39.037         150.247          -39.037         150.248       -0.0338669         139.897
0.651                   -6.44068         144.723         -38.9408         148.398         -38.9409         148.398       -0.0342779         139.805
0.652                   -6.56793         144.089         -38.8451         146.549         -38.8452          146.55       -0.0346954         139.714
0.653                   -6.69679         143.464         -38.7499         144.703         -38.7499         144.703       -0.0351197         139.622
0.654                   -6.82723         142.849          -38.655         142.858         -38.6551         142.858       -0.0355509         139.529
0.655                   -6.95922         142.244         -38.5606         141.014         -38.5606         141.014       -0.0359893         139.436
0.656                   -7.09273         141.649         -38.4666         139.172         -38.4666         139.172       -0.0364352         139.343
0.657                   -7.22773         141.064         -38.3729         137.332         -38.3729         137.332       -0.0368889         139.249
0.658                   -7.36419          140.49         -38.2796         135.493         -38.2796         135.493       -0.0373506         139.155
0.659                   -7.50207         139.928         -38.1866         133.656         -38.1866         133.656       -0.0378206         139.061
0.66                    -7.64134         139.376         -38.0939         131.821          -38.094         131.821       -0.0382992         138.966
0.661                   -7.78196         138.837         -38.0016         129.987         -38.0016         129.987       -0.0387867          138.87
0.662                   -7.92389         138.309         -37.9095         128.154         -37.9096         128.154       -0.0392833         138.774
0.663                    -8.0671         137.794         -37.8178         126.323         -37.8178         126.324       -0.0397894         138.678
0.664                   -8.21155         137.291         -37.7262         124.494         -37.7263         124.494       -0.0403052         138.581
0.665                   -8.35719         136.801          -37.635         122.666          -37.635         122.667       -0.0408312         138.484
0.666                   -8.50398         136.324         -37.5439          120.84         -37.5439          120.84       -0.0413675         138.386
0.667                   -8.65188          135.86         -37.4531         119.015         -37.4531         119.015       -0.0419145         138.288
0.668                   -8.80085          135.41         -37.3624         117.192         -37.3624         117.192       -0.0424726         138.189
0.669                   -8.95083         134.973         -37.2719          115.37          -37.272          115.37       -0.0430421          138.09
0.67                    -9.10179         134.551         -37.1816         113.549         -37.1816         113.549       -0.0436233          137.99
0.671                   -9.25367         134.143         -37.0915          111.73         -37.0915          111.73       -0.0442167          137.89
0.672                   -9.40643         133.749         -37.0015         109.912         -37.0015         109.912       -0.0448225         137.789
0.673                   -9.56002          133.37         -36.9116         108.095         -36.9115         108.095       -0.0454413         137.688
0.674                   -9.71439         133.006         -36.8217         106.279         -36.8217         106.279       -0.0460733         137.586
0.675                   -9.86948         132.657          -36.732         104.465          -36.732         104.465        -0.046719         137.484
0.676                   -10.0252         132.324         -36.6424         102.652         -36.6424         102.652       -0.0473788         137.381
0.677                   -10.1816         132.006         -36.5528         100.839         -36.5528          100.84       -0.0480533         137.277
0.678                   -10.3386         131.704         -36.4633         99.0283         -36.4633         99.0283       -0.0487427         137.173
0.679                    -10.496         131.418         -36.3738         97.2181         -36.3738         97.2181       -0.0494477         137.068
0.68                    -10.6539         131.148         -36.2843         95.4088         -36.2843         95.4088       -0.0501687         136.963
0.681                   -10.8122         130.895         -36.1949         93.6004         -36.1948         93.6003       -0.0509062         136.857
0.682                   -10.9709         130.658         -36.1054         91.7928         -36.1054         91.7927       -0.0516607         136.751
0.683                   -11.1298         130.437         -36.0159          89.986         -36.0159         89.9858       -0.0524329         136.643
0.684                   -11.2889         130.234         -35.9264         88.1798         -35.9264         88.1797       -0.0532233         136.536
0.685                   -11.4481         130.048         -35.8369         86.3744         -35.8369         86.3742       -0.0540324         136.427
0.686                   -11.6075         129.879         -35.7473         84.5695         -35.7473         84.5693       -0.0548609         136.318
0.687                   -11.7668         129.728         -35.6577         82.7652         -35.6577         82.7649       -0.0557095         136.208
0.688                   -11.9261         129.594          -35.568         80.9614          -35.568         80.9611       -0.0565787         136.098
0.689                   -12.0852         129.478         -35.4782         79.1579         -35.4782         79.1576       -0.0574694         135.986
0.69                    -12.2442          129.38         -35.3884         77.3549         -35.3884         77.3545       -0.0583822         135.875
0.691                   -12.4028           129.3         -35.2984         75.5522         -35.2984         75.5518       -0.0593178         135.762
0.692                   -12.5611         129.238         -35.2084         73.7497         -35.2084         73.7493        -0.060277         135.649
0.693                    -12.719         129.194         -35.1183         71.9474         -35.1183         71.9469       -0.0612608         135.534
0.694                   -12.8763         129.169          -35.028         70.1452          -35.028         70.1447       -0.0622697          135.42
0.695                    -13.033         129.162         -34.9377         68.3432         -34.9377         68.3426       -0.0633049         135.304
0.696                    -13.189         129.174         -34.8472         66.5411         -34.8472         66.5405        -0.064367         135.188
0.697                   -13.3443         129.205         -34.7566          64.739         -34.7566         64.7384       -0.0654571          135.07