! TOUCHSTONE file generated by CST MICROWAVE STUDIO
! Date and time: Fri Oct  2 16:54:56 2020
! Project name: Scenario_1_Free_Space_out_of_line.cst
! Parameters = {Lambda=346.42; Step_1=17.321; dy1=208.912; dx1=693; L_HA=400; MT=2.54; Rad_Dielectric=30; Rad_Lower=7.3; Rad_Upper=30; a_HA=580; a_WG=246; b_HA=500; b_WG=121; c_HA=0; c_WG=187; d_feed=85; h_feed=15; h_lower=18; h_upper=40}
! Header version: 2018
! Port assignment regex: !\s*Touchstone port\s*([0-9]+)\s*=\s*(CST MWS port|CST DS port)\s*([0-9]+|Zmin|Zmax)\s*\(\"(.*)\"\)(\s*mode\s*([0-9]+))?.*
! Touchstone port assignment:
! Touchstone port 1 = CST MWS port 1 ("")
! Touchstone port 2 = CST MWS port 2 ("")
# GHz S DB R 50
0.5                    -0.147653        -122.642         -63.7668        -125.466         -63.5961        -125.664      -0.00664512         151.161
0.501                  -0.156116        -123.078         -63.5869        -127.419         -63.5159        -127.913      -0.00670175         151.095
0.502                  -0.164656        -123.516         -63.4058        -129.379         -63.4299        -130.173      -0.00675915          151.03
0.503                  -0.173275        -123.955         -63.2234        -131.345         -63.3378        -132.442      -0.00681734         150.965
0.504                  -0.181975        -124.395         -63.0398        -133.318         -63.2399        -134.718      -0.00687634         150.899
0.505                  -0.190755        -124.837         -62.8551        -135.297         -63.1361            -137      -0.00693614         150.834
0.506                  -0.199619        -125.281         -62.6692        -137.283         -63.0264        -139.287      -0.00699677         150.768
0.507                  -0.208568        -125.727         -62.4823        -139.275         -62.9109        -141.575      -0.00705823         150.703
0.508                  -0.217604        -126.174         -62.2945        -141.272         -62.7898        -143.865      -0.00712054         150.637
0.509                  -0.226729        -126.623         -62.1057        -143.277          -62.663        -146.154       -0.0071837         150.571
0.51                   -0.235945        -127.073          -61.916        -145.287         -62.5309        -148.442      -0.00724774         150.505
0.511                  -0.245254        -127.526         -61.7255        -147.303         -62.3934        -150.726      -0.00731266         150.439
0.512                  -0.254659         -127.98         -61.5343        -149.325         -62.2508        -153.006      -0.00737847         150.373
0.513                  -0.264163        -128.436         -61.3423        -151.354         -62.1032         -155.28      -0.00744518         150.307
0.514                  -0.273768        -128.894         -61.1498        -153.388         -61.9508        -157.547      -0.00751281         150.241
0.515                  -0.283477        -129.354         -60.9566        -155.429         -61.7937        -159.808      -0.00758138         150.175
0.516                  -0.293294        -129.816         -60.7629        -157.475         -61.6323         -162.06      -0.00765088         150.108
0.517                  -0.303221         -130.28         -60.5687        -159.527         -61.4666        -164.302      -0.00772133         150.042
0.518                  -0.313263        -130.746         -60.3741        -161.585          -61.297        -166.536      -0.00779276         149.975
0.519                  -0.323423        -131.214         -60.1792         -163.65         -61.1235        -168.759      -0.00786516         149.909
0.52                   -0.333705        -131.684         -59.9839         -165.72         -60.9464        -170.972      -0.00793855         149.842
0.521                  -0.344113        -132.157         -59.7884        -167.795         -60.7659        -173.174      -0.00801294         149.775
0.522                  -0.354652        -132.632         -59.5928        -169.877         -60.5822        -175.366      -0.00808835         149.708
0.523                  -0.365325        -133.108          -59.397        -171.965         -60.3956        -177.546      -0.00816479         149.641
0.524                  -0.376138        -133.588         -59.2011        -174.058         -60.2061        -179.716      -0.00824227         149.574
0.525                  -0.387096        -134.069         -59.0053        -176.157         -60.0141         178.126       -0.0083208         149.507
0.526                  -0.398204        -134.553         -58.8095        -178.262         -59.8198         175.978       -0.0084004          149.44
0.527                  -0.409467        -135.039         -58.6138         179.627         -59.6232          173.84      -0.00848108         149.372
0.528                  -0.420891        -135.528         -58.4182         177.511         -59.4246         171.713      -0.00856285         149.305
0.529                  -0.432482        -136.019         -58.2229         175.389         -59.2241         169.596      -0.00864573         149.237
0.53                   -0.444246        -136.513         -58.0278         173.262          -59.022         167.488      -0.00872974         149.169
0.531                   -0.45619        -137.009          -57.833         171.129         -58.8184          165.39      -0.00881487         149.102
0.532                  -0.468321        -137.508         -57.6386          168.99         -58.6135         163.299      -0.00890115         149.034
0.533                  -0.480644         -138.01         -57.4447         166.846         -58.4073         161.217       -0.0089886         148.966
0.534                  -0.493169        -138.514         -57.2511         164.697         -58.2002         159.143      -0.00907722         148.898
0.535                  -0.505901        -139.021         -57.0581         162.542         -57.9921         157.076      -0.00916702          148.83
0.536                  -0.518849        -139.531         -56.8657         160.382         -57.7832         155.015      -0.00925803         148.761
0.537                  -0.532022        -140.043         -56.6739         158.217         -57.5737          152.96      -0.00935026         148.693
0.538                  -0.545426        -140.559         -56.4827         156.047         -57.3637          150.91      -0.00944372         148.625
0.539                  -0.559072        -141.077         -56.2922         153.872         -57.1532         148.865      -0.00953843         148.556
0.54                   -0.572967        -141.598         -56.1024         151.693         -56.9425         146.824       -0.0096344         148.487
0.541                  -0.587122        -142.122         -55.9134         149.508         -56.7316         144.786      -0.00973164         148.418
0.542                  -0.601545        -142.649         -55.7252         147.319         -56.5206         142.751      -0.00983018          148.35
0.543                  -0.616247        -143.179         -55.5379         145.125         -56.3096         140.718      -0.00993002         148.281
0.544                  -0.631237        -143.711         -55.3514         142.927         -56.0987         138.687       -0.0100312         148.211
0.545                  -0.646527        -144.247         -55.1659         140.724          -55.888         136.657       -0.0101337         148.142
0.546                  -0.662126        -144.786         -54.9813         138.518         -55.6776         134.627       -0.0102375         148.073
0.547                  -0.678045        -145.328         -54.7977         136.307         -55.4676         132.597       -0.0103428         148.003
0.548                  -0.694297        -145.874         -54.6151         134.093          -55.258         130.566       -0.0104494         147.934
0.549                  -0.710892        -146.422         -54.4335         131.874         -55.0489         128.534       -0.0105574         147.864
0.55                   -0.727841        -146.974         -54.2529         129.652         -54.8405           126.5       -0.0106668         147.794
0.551                  -0.745158        -147.528         -54.0735         127.427         -54.6327         124.464       -0.0107776         147.725
0.552                  -0.762855        -148.086         -53.8951         125.198         -54.4257         122.425       -0.0108899         147.654
0.553                  -0.780943        -148.647         -53.7179         122.967         -54.2194         120.383       -0.0110037         147.584
0.554                  -0.799436        -149.211         -53.5417         120.732         -54.0141         118.337        -0.011119         147.514
0.555                  -0.818347        -149.779         -53.3668         118.494         -53.8097         116.286       -0.0112357         147.444
0.556                  -0.837689         -150.35         -53.1929         116.254         -53.6063         114.231        -0.011354         147.373
0.557                  -0.857475        -150.924         -53.0203         114.011          -53.404         112.172       -0.0114738         147.303
0.558                  -0.877719        -151.501         -52.8488         111.765         -53.2028         110.106       -0.0115952         147.232
0.559                  -0.898435        -152.081         -52.6785         109.518         -53.0028         108.035       -0.0117181         147.161
0.56                   -0.919636        -152.665         -52.5094         107.268          -52.804         105.959       -0.0118426          147.09
0.561                  -0.941337        -153.252         -52.3416         105.017         -52.6065         103.875       -0.0119688         147.019
0.562                  -0.963551        -153.842         -52.1749         102.763         -52.4104         101.786       -0.0120965         146.948
0.563                  -0.986293        -154.435         -52.0094         100.508         -52.2157         99.6894        -0.012226         146.876
0.564                   -1.00958        -155.031         -51.8451         98.2516         -52.0225          97.586        -0.012357         146.805
0.565                   -1.03342        -155.631          -51.682         95.9938         -51.8307         95.4755       -0.0124898         146.733
0.566                   -1.05783        -156.234           -51.52         93.7347         -51.6406         93.3578       -0.0126243         146.661
0.567                   -1.08283        -156.839         -51.3593         91.4746          -51.452         91.2327       -0.0127605         146.589
0.568                   -1.10842        -157.448         -51.1998         89.2135          -51.265         89.1001       -0.0128985         146.517
0.569                   -1.13463         -158.06         -51.0414         86.9517         -51.0798           86.96       -0.0130382         146.445
0.57                    -1.16147        -158.675         -50.8842         84.6891         -50.8963         84.8123       -0.0131797         146.373
0.571                   -1.18894        -159.293         -50.7282          82.426         -50.7145         82.6571        -0.013323           146.3
0.572                   -1.21708        -159.914         -50.5733         80.1625         -50.5346         80.4943       -0.0134682         146.228
0.573                   -1.24588        -160.537         -50.4195         77.8986         -50.3565         78.3241       -0.0136152         146.155
0.574                   -1.27536        -161.164         -50.2669         75.6345         -50.1803         76.1465       -0.0137641         146.082
0.575                   -1.30554        -161.793         -50.1153         73.3703          -50.006         73.9615        -0.013915         146.009
0.576                   -1.33642        -162.425         -49.9649         71.1061         -49.8336         71.7694       -0.0140677         145.936
0.577                   -1.36803        -163.059         -49.8155         68.8419         -49.6631         69.5703       -0.0142224         145.862
0.578                   -1.40036        -163.696         -49.6672         66.5778         -49.4947         67.3644       -0.0143791         145.789
0.579                   -1.43344        -164.336         -49.5199          64.314         -49.3282         65.1518       -0.0145377         145.715
0.58                    -1.46727        -164.977         -49.3737         62.0505         -49.1637         62.9327       -0.0146984         145.641
0.581                   -1.50187        -165.622         -49.2285         59.7874         -49.0013         60.7075       -0.0148612         145.567
0.582                   -1.53724        -166.268         -49.0843         57.5247         -48.8408         58.4764        -0.015026         145.493
0.583                    -1.5734        -166.917          -48.941         55.2626         -48.6824         56.2395        -0.015193         145.419
0.584                   -1.61035        -167.568         -48.7987          53.001          -48.526         53.9974       -0.0153621         145.344
0.585                    -1.6481        -168.221         -48.6573           50.74         -48.3716         51.7501       -0.0155333          145.27
0.586                   -1.68666        -168.876         -48.5169         48.4797         -48.2193          49.498       -0.0157068         145.195
0.587                   -1.72604        -169.532         -48.3774         46.2201         -48.0689         47.2415       -0.0158825          145.12
0.588                   -1.76624        -170.191         -48.2387         43.9613         -47.9206         44.9809       -0.0160604         145.045
0.589                   -1.80727        -170.851         -48.1009         41.7032         -47.7742         42.7165       -0.0162406          144.97
0.59                    -1.84913        -171.513          -47.964         39.4459         -47.6297         40.4486       -0.0164232         144.894
0.591                   -1.89183        -172.176         -47.8278         37.1895         -47.4872         38.1776       -0.0166081         144.819
0.592                   -1.93537        -172.841         -47.6925          34.934         -47.3466         35.9039       -0.0167954         144.743
0.593                   -1.97976        -173.507          -47.558         32.6793         -47.2078         33.6277       -0.0169851         144.667
0.594                   -2.02499        -174.175         -47.4242         30.4255         -47.0708         31.3494       -0.0171773         144.591
0.595                   -2.07108        -174.843         -47.2912         28.1727         -46.9356         29.0693       -0.0173719         144.514
0.596                   -2.11801        -175.513         -47.1589         25.9208         -46.8022         26.7878       -0.0175691         144.438
0.597                    -2.1658        -176.184         -47.0273         23.6698         -46.6704         24.5051       -0.0177689         144.361
0.598                   -2.21443        -176.855         -46.8964         21.4197         -46.5403         22.2216       -0.0179713         144.284
0.599                   -2.26391        -177.528         -46.7661         19.1706         -46.4118         19.9376       -0.0181763         144.207
0.6                     -2.31424        -178.201         -46.6366         16.9225         -46.2848         17.6534       -0.0183841          144.13
0.601                   -2.36542        -178.876         -46.5076         14.6752         -46.1594         15.3692       -0.0185946         144.052
0.602                   -2.41744        -179.551         -46.3793         12.4289         -46.0353         13.0853       -0.0188079         143.974
0.603                    -2.4703         179.774         -46.2516         10.1836         -45.9126          10.802        -0.019024         143.897
0.604                     -2.524         179.098         -46.1245         7.93911         -45.7912         8.51942        -0.019243         143.819
0.605                   -2.57853         178.421         -45.9979         5.69557         -45.6711         6.23785       -0.0194649          143.74
0.606                   -2.63389         177.744         -45.8719         3.45292         -45.5521         3.95748       -0.0196898         143.662
0.607                   -2.69008         177.066         -45.7464         1.21114         -45.4343          1.6785       -0.0199178         143.583
0.608                   -2.74709         176.387         -45.6214        -1.02977         -45.3175       -0.598941       -0.0201488         143.504
0.609                   -2.80491         175.709         -45.4969        -3.26984         -45.2018        -2.87468        -0.020383         143.425
0.61                    -2.86355         175.029          -45.373        -5.50909         -45.0869        -5.14859       -0.0206205         143.346
0.611                     -2.923          174.35         -45.2494        -7.74754         -44.9729        -7.42055       -0.0208611         143.266
0.612                   -2.98326          173.67         -45.1264        -9.98521         -44.8597        -9.69046       -0.0211052         143.186
0.613                   -3.04432         172.989         -45.0037        -12.2221         -44.7473        -11.9582       -0.0213526         143.106
0.614                   -3.10617         172.308         -44.8815        -14.4583         -44.6355        -14.2238       -0.0216035         143.026
0.615                   -3.16883         171.626         -44.7597        -16.6938         -44.5243        -16.4872        -0.021858         142.945
0.616                   -3.23228         170.944         -44.6383        -18.9287         -44.4137        -18.7483        -0.022116         142.865
0.617                   -3.29652         170.261         -44.5172        -21.1629         -44.3036         -21.007       -0.0223778         142.784
0.618                   -3.36155         169.578         -44.3965        -23.3965          -44.194        -23.2635       -0.0226433         142.703
0.619                   -3.42738         168.894         -44.2762        -25.6296         -44.0847        -25.5177       -0.0229128         142.621
0.62                      -3.494         168.209         -44.1562        -27.8621         -43.9757        -27.7697       -0.0231861         142.539
0.621                   -3.56142         167.523         -44.0365        -30.0941          -43.867        -30.0194       -0.0234635         142.457
0.622                   -3.62964         166.837         -43.9171        -32.3258         -43.7585         -32.267        -0.023745         142.375
0.623                   -3.69866         166.149          -43.798         -34.557         -43.6503        -34.5125       -0.0240308         142.293
0.624                    -3.7685         165.461         -43.6792        -36.7879         -43.5421        -36.7559       -0.0243209          142.21
0.625                   -3.83916         164.771         -43.5607        -39.0184          -43.434        -38.9975       -0.0246154         142.127
0.626                   -3.91064          164.08         -43.4424        -41.2488          -43.326        -41.2372       -0.0249145         142.044
0.627                   -3.98297         163.388         -43.3243        -43.4789         -43.2179        -43.4751       -0.0252183          141.96
0.628                   -4.05615         162.694         -43.2065        -45.7089         -43.1099        -45.7115       -0.0255269         141.877
0.629                   -4.13019         161.998         -43.0889        -47.9388         -43.0017        -47.9464       -0.0258404         141.792
0.63                    -4.20513         161.301         -42.9715        -50.1687         -42.8935        -50.1799       -0.0261589         141.708
0.631                   -4.28096         160.602         -42.8543        -52.3986         -42.7851        -52.4122       -0.0264826         141.624
0.632                   -4.35773         159.902         -42.7373        -54.6286         -42.6766        -54.6435       -0.0268117         141.539
0.633                   -4.43544         159.199         -42.6205        -56.8588         -42.5679        -56.8738       -0.0271462         141.453
0.634                   -4.51413         158.494         -42.5039        -59.0892          -42.459        -59.1034       -0.0274864         141.368
0.635                   -4.59382         157.786         -42.3874        -61.3199         -42.3498        -61.3324       -0.0278324         141.282
0.636                   -4.67455         157.077         -42.2711        -63.5511         -42.2405        -63.5609       -0.0281844         141.196
0.637                   -4.75635         156.365         -42.1549        -65.7826         -42.1308        -65.7892       -0.0285426         141.109
0.638                   -4.83925          155.65         -42.0388        -68.0147         -42.0209        -68.0174       -0.0289071         141.023
0.639                    -4.9233         154.932         -41.9229        -70.2474         -41.9107        -70.2457       -0.0292781         140.936
0.64                    -5.00854         154.212         -41.8072        -72.4808         -41.8003        -72.4742       -0.0296559         140.848
0.641                   -5.09502         153.488         -41.6915        -74.7149         -41.6895        -74.7032       -0.0300406         140.761
0.642                   -5.18278         152.762          -41.576        -76.9499         -41.5785        -76.9327       -0.0304325         140.672
0.643                   -5.27188         152.033         -41.4606        -79.1859         -41.4672         -79.163       -0.0308318         140.584
0.644                   -5.36237           151.3         -41.3453        -81.4229         -41.3556        -81.3943       -0.0312387         140.495
0.645                   -5.45432         150.564         -41.2302        -83.6609         -41.2437        -83.6267       -0.0316534         140.406
0.646                   -5.54778         149.825         -41.1151        -85.9002         -41.1315        -85.8603       -0.0320763         140.317
0.647                   -5.64282         149.082         -41.0002        -88.1408         -41.0191        -88.0954       -0.0325076         140.227
0.648                   -5.73951         148.336         -40.8854        -90.3827         -40.9064        -90.3321       -0.0329476         140.137
0.649                   -5.83792         147.587         -40.7707        -92.6261         -40.7935        -92.5705       -0.0333964         140.046
0.65                    -5.93814         146.835         -40.6561         -94.871         -40.6804        -94.8109       -0.0338545         139.956
0.651                   -6.04025         146.079         -40.5417        -97.1175          -40.567        -97.0532       -0.0343221         139.864
0.652                   -6.14432          145.32         -40.4274        -99.3658         -40.4535        -99.2978       -0.0347995         139.773
0.653                   -6.25045         144.558         -40.3132        -101.616         -40.3399        -101.545       -0.0352869         139.681
0.654                   -6.35873         143.793         -40.1992        -103.868         -40.2261        -103.794       -0.0357849         139.588
0.655                   -6.46927         143.026         -40.0853        -106.122         -40.1122        -106.046       -0.0362935         139.495
0.656                   -6.58215         142.255         -39.9716        -108.378         -39.9982          -108.3       -0.0368132         139.402
0.657                   -6.69749         141.482         -39.8581        -110.636         -39.8841        -110.558       -0.0373443         139.309
0.658                   -6.81539         140.707         -39.7447        -112.896         -39.7701        -112.818       -0.0378871         139.215
0.659                   -6.93597         139.931         -39.6315        -115.158          -39.656        -115.081       -0.0384419          139.12
0.66                    -7.05935         139.152         -39.5186        -117.423          -39.542        -117.347       -0.0390091         139.025
0.661                   -7.18564         138.373         -39.4058         -119.69         -39.4281        -119.616        -0.039589          138.93
0.662                   -7.31498         137.593         -39.2933         -121.96         -39.3142        -121.889       -0.0401819         138.835
0.663                   -7.44748         136.813         -39.1811        -124.232         -39.2006        -124.164       -0.0407882         138.738
0.664                   -7.58329         136.034         -39.0691        -126.507          -39.087        -126.442       -0.0414081         138.642
0.665                   -7.72253         135.255         -38.9574        -128.784         -38.9737        -128.724       -0.0420419         138.545
0.666                   -7.86534         134.479          -38.846        -131.064         -38.8607        -131.009         -0.04269         138.447
0.667                   -8.01187         133.705          -38.735        -133.346         -38.7479        -133.297       -0.0433526          138.35
0.668                   -8.16225         132.935         -38.6242        -135.631         -38.6355        -135.588         -0.04403         138.251
0.669                   -8.31664         132.169         -38.5139        -137.918         -38.5234        -137.882       -0.0447225         138.152
0.67                    -8.47517         131.409         -38.4039        -140.208         -38.4118        -140.179       -0.0454303         138.053
0.671                   -8.63799         130.656         -38.2943        -142.501         -38.3005         -142.48       -0.0461536         137.953
0.672                   -8.80526         129.911         -38.1851        -144.796         -38.1897        -144.783       -0.0468926         137.853
0.673                   -8.97711         129.175         -38.0764        -147.094         -38.0794        -147.088       -0.0476476         137.752
0.674                   -9.15369         128.451         -37.9682        -149.394         -37.9697        -149.397       -0.0484186         137.651
0.675                   -9.33514         127.739         -37.8604        -151.697         -37.8605        -151.707       -0.0492059         137.549
0.676                    -9.5216         127.041         -37.7531        -154.002         -37.7519        -154.021       -0.0500095         137.447
0.677                   -9.71319          126.36         -37.6464        -156.309          -37.644        -156.336       -0.0508296         137.344
0.678                   -9.91005         125.698         -37.5402        -158.618         -37.5367        -158.654       -0.0516662         137.241
0.679                   -10.1123         125.057         -37.4346         -160.93           -37.43        -160.973       -0.0525195         137.137
0.68                      -10.32         124.439         -37.3296        -163.244         -37.3241        -163.295       -0.0533895         137.033
0.681                   -10.5333         123.847         -37.2252        -165.559         -37.2189        -165.617       -0.0542762         136.928
0.682                   -10.7522         123.285         -37.1214        -167.876         -37.1145        -167.941       -0.0551796         136.823
0.683                   -10.9768         122.754         -37.0183        -170.195         -37.0108        -170.267       -0.0560999         136.717
0.684                   -11.2071          122.26         -36.9158        -172.515         -36.9079        -172.593       -0.0570369          136.61
0.685                   -11.4432         121.804          -36.814        -174.836         -36.8058        -174.919       -0.0579908         136.503
0.686                   -11.6849         121.391         -36.7129        -177.159         -36.7045        -177.247       -0.0589616         136.395
0.687                   -11.9321         121.026         -36.6125        -179.482          -36.604        -179.574       -0.0599492         136.287
0.688                   -12.1849         120.712         -36.5128         178.194         -36.5044         178.099       -0.0609537         136.178
0.689                   -12.4429         120.454         -36.4138         175.869         -36.4055         175.771       -0.0619752         136.068
0.69                    -12.7059         120.256         -36.3155         173.544         -36.3075         173.445       -0.0630138         135.958
0.691                   -12.9735         120.125          -36.218         171.219         -36.2104         171.119       -0.0640694         135.847
0.692                   -13.2454         120.066         -36.1213         168.894          -36.114         168.794       -0.0651423         135.736
0.693                   -13.5211         120.083         -36.0252          166.57         -36.0184          166.47       -0.0662326         135.623
0.694                   -13.7998         120.183         -35.9299         164.246         -35.9237         164.148       -0.0673404         135.511
0.695                   -14.0808          120.37         -35.8354         161.922         -35.8297         161.828        -0.068466         135.397
0.696                   -14.3632         120.651         -35.7415           159.6         -35.7365         159.509       -0.0696097         135.283
0.697                    -14.646         121.031         -35.6484         157.279          -35.644         157.193       -0.0707717         135.168