! TOUCHSTONE file generated by CST MICROWAVE STUDIO
! Date and time: Fri Oct  2 18:55:45 2020
! Project name: Scenario_1_Free_Space_out_of_line.cst
! Parameters = {Lambda=346.42; Step_1=17.321; dy1=208.912; dx1=1039; L_HA=400; MT=2.54; Rad_Dielectric=30; Rad_Lower=7.3; Rad_Upper=30; a_HA=580; a_WG=246; b_HA=500; b_WG=121; c_HA=0; c_WG=187; d_feed=85; h_feed=15; h_lower=18; h_upper=40}
! Header version: 2018
! Port assignment regex: !\s*Touchstone port\s*([0-9]+)\s*=\s*(CST MWS port|CST DS port)\s*([0-9]+|Zmin|Zmax)\s*\(\"(.*)\"\)(\s*mode\s*([0-9]+))?.*
! Touchstone port assignment:
! Touchstone port 1 = CST MWS port 1 ("")
! Touchstone port 2 = CST MWS port 2 ("")
# GHz S DB R 50
0.5                    -0.148153        -122.562         -65.0561         41.0264         -65.0382         40.9499      -0.00668718         151.118
0.501                  -0.153148        -123.006         -64.8703         37.4965         -64.8589         37.7297      -0.00675102         151.053
0.502                  -0.158372        -123.452         -64.6736         34.0725         -64.6716         34.5786       -0.0068154         150.987
0.503                  -0.163825          -123.9         -64.4681         30.7541         -64.4775         31.4968      -0.00688034         150.922
0.504                  -0.169512        -124.349         -64.2556         27.5396         -64.2777         28.4838      -0.00694585         150.856
0.505                  -0.175433        -124.801         -64.0377         24.4258         -64.0731         25.5383      -0.00701192         150.791
0.506                  -0.181591        -125.254          -63.816         21.4091         -63.8648         22.6586      -0.00707859         150.725
0.507                  -0.187989        -125.709         -63.5915         18.4849         -63.6537         19.8425      -0.00714585         150.659
0.508                  -0.194629        -126.166         -63.3656         15.6483         -63.4404         17.0875      -0.00721372         150.593
0.509                  -0.201513        -126.624         -63.1391         12.8941         -63.2256         14.3908      -0.00728221         150.527
0.51                   -0.208643        -127.085         -62.9129         10.2172         -63.0101         11.7495      -0.00735134         150.461
0.511                  -0.216022        -127.547         -62.6876          7.6123         -62.7943         9.16041      -0.00742111         150.395
0.512                  -0.223652        -128.011         -62.4638         5.07415         -62.5787         6.62057      -0.00749153         150.329
0.513                  -0.231535        -128.477         -62.2421         2.59775         -62.3638         4.12683      -0.00756262         150.263
0.514                  -0.239673        -128.945         -62.0227        0.178234         -62.1498         1.67611       -0.0076344         150.197
0.515                   -0.24807        -129.415         -61.8061        -2.18905         -61.9371       -0.734631      -0.00770686          150.13
0.516                  -0.256727        -129.886         -61.5924        -4.50854          -61.726        -3.10834      -0.00778004         150.064
0.517                  -0.265647         -130.36         -61.3819        -6.78444         -61.5167        -5.44788      -0.00785393         149.997
0.518                  -0.274831        -130.835         -61.1747        -9.02072         -61.3093        -7.75604      -0.00792855          149.93
0.519                  -0.284283        -131.312         -60.9709        -11.2211          -61.104        -10.0355      -0.00800392         149.864
0.52                   -0.294005        -131.791         -60.7706        -13.3892         -60.9009        -12.2888      -0.00808005         149.797
0.521                  -0.303999        -132.272         -60.5738        -15.5283         -60.7002        -14.5183      -0.00815696          149.73
0.522                  -0.314268        -132.755         -60.3806        -17.6414         -60.5019        -16.7265      -0.00823465         149.663
0.523                  -0.324813        -133.239         -60.1909        -19.7316          -60.306        -18.9156      -0.00831314         149.596
0.524                  -0.335638        -133.726         -60.0048        -21.8016         -60.1127        -21.0877      -0.00839245         149.528
0.525                  -0.346745        -134.215         -59.8221        -23.8539         -59.9219        -23.2448      -0.00847258         149.461
0.526                  -0.358137        -134.705         -59.6429         -25.891         -59.7336        -25.3889      -0.00855357         149.394
0.527                  -0.369815        -135.197         -59.4671        -27.9153         -59.5478        -27.5218      -0.00863541         149.326
0.528                  -0.381782        -135.692         -59.2946        -29.9288         -59.3647        -29.6453      -0.00871814         149.259
0.529                  -0.394041        -136.188         -59.1254        -31.9335          -59.184         -31.761      -0.00880175         149.191
0.53                   -0.406595        -136.686         -58.9593        -33.9315         -59.0058        -33.8705      -0.00888627         149.123
0.531                  -0.419445        -137.186         -58.7964        -35.9246         -58.8301        -35.9754      -0.00897172         149.055
0.532                  -0.432595        -137.688         -58.6365        -37.9144         -58.6569        -38.0771      -0.00905811         148.987
0.533                  -0.446046        -138.192         -58.4796        -39.9026          -58.486        -40.1769      -0.00914545         148.919
0.534                  -0.459802        -138.698         -58.3255        -41.8908         -58.3176        -42.2762      -0.00923377         148.851
0.535                  -0.473866        -139.206         -58.1741        -43.8804         -58.1514        -44.3763      -0.00932309         148.783
0.536                  -0.488239        -139.716         -58.0255        -45.8729         -57.9875        -46.4783      -0.00941341         148.714
0.537                  -0.502925        -140.228         -57.8794        -47.8696         -57.8258        -48.5835      -0.00950476         148.646
0.538                  -0.517926        -140.742         -57.7358        -49.8717         -57.6662        -50.6928      -0.00959716         148.577
0.539                  -0.533245        -141.257         -57.5946        -51.8806         -57.5087        -52.8074      -0.00969062         148.508
0.54                   -0.548884        -141.775         -57.4556        -53.8975         -57.3533        -54.9283      -0.00978516          148.44
0.541                  -0.564848        -142.295         -57.3189        -55.9233         -57.1998        -57.0564      -0.00988081         148.371
0.542                  -0.581137        -142.817         -57.1842        -57.9593         -57.0483        -59.1927      -0.00997757         148.302
0.543                  -0.597756        -143.341         -57.0516        -60.0065         -56.8986         -61.338       -0.0100755         148.232
0.544                  -0.614706        -143.867         -56.9208        -62.0658         -56.7507        -63.4932       -0.0101746         148.163
0.545                  -0.631992        -144.395         -56.7918        -64.1383         -56.6044        -65.6592       -0.0102748         148.094
0.546                  -0.649616        -144.925         -56.6644        -66.2248         -56.4598        -67.8366       -0.0103763         148.024
0.547                   -0.66758        -145.458         -56.5386        -68.3263         -56.3168        -70.0263       -0.0104789         147.955
0.548                  -0.685889        -145.992         -56.4143        -70.4435         -56.1753         -72.229       -0.0105829         147.885
0.549                  -0.704546        -146.528         -56.2914        -72.5774         -56.0351        -74.4453       -0.0106881         147.815
0.55                   -0.723552        -147.067         -56.1697        -74.7287         -55.8964        -76.6759       -0.0107945         147.745
0.551                  -0.742913        -147.608         -56.0491        -76.8981         -55.7588        -78.9214       -0.0109023         147.675
0.552                   -0.76263        -148.151         -55.9295        -79.0864         -55.6225        -81.1824       -0.0110115         147.605
0.553                  -0.782708        -148.696         -55.8109        -81.2942         -55.4873        -83.4595       -0.0111219         147.535
0.554                   -0.80315        -149.243          -55.693        -83.5222         -55.3531        -85.7531       -0.0112338         147.464
0.555                  -0.823959        -149.792         -55.5758        -85.7709         -55.2198        -88.0637       -0.0113471         147.394
0.556                   -0.84514        -150.344         -55.4591        -88.0409         -55.0874        -90.3919       -0.0114618         147.323
0.557                  -0.866695        -150.897         -55.3429        -90.3327         -54.9558        -92.7379        -0.011578         147.253
0.558                  -0.888628        -151.453          -55.227        -92.6469         -54.8248        -95.1023       -0.0116956         147.182
0.559                  -0.910945        -152.012         -55.1112        -94.9838         -54.6945        -97.4853       -0.0118148         147.111
0.56                   -0.933647        -152.572         -54.9956        -97.3439         -54.5647        -99.8872       -0.0119355         147.039
0.561                   -0.95674        -153.135         -54.8799        -99.7274         -54.4353        -102.308       -0.0120577         146.968
0.562                  -0.980227          -153.7          -54.764        -102.135         -54.3062        -104.749       -0.0121815         146.897
0.563                   -1.00411        -154.268         -54.6477        -104.566         -54.1775        -107.209        -0.012307         146.825
0.564                    -1.0284        -154.838         -54.5311        -107.021         -54.0489        -109.689       -0.0124341         146.754
0.565                    -1.0531         -155.41         -54.4139        -109.501         -53.9203        -112.189       -0.0125629         146.682
0.566                   -1.07821        -155.985          -54.296        -112.006         -53.7918        -114.709       -0.0126934          146.61
0.567                   -1.10374        -156.562         -54.1773        -114.534         -53.6632        -117.249       -0.0128256         146.538
0.568                   -1.12969        -157.141         -54.0577        -117.087         -53.5344         -119.81       -0.0129596         146.466
0.569                   -1.15607        -157.723         -53.9371        -119.665         -53.4053         -122.39       -0.0130953         146.393
0.57                    -1.18288        -158.307         -53.8153        -122.266          -53.276        -124.989        -0.013233         146.321
0.571                   -1.21013        -158.894         -53.6923        -124.892         -53.1462        -127.609       -0.0133724         146.248
0.572                   -1.23782        -159.484         -53.5679        -127.541         -53.0159        -130.248       -0.0135138         146.175
0.573                   -1.26596        -160.076          -53.442        -130.213          -52.885        -132.906       -0.0136571         146.102
0.574                   -1.29456        -160.671         -53.3146        -132.909         -52.7535        -135.583       -0.0138023         146.029
0.575                   -1.32363        -161.268         -53.1855        -135.627         -52.6212        -138.279       -0.0139496         145.956
0.576                   -1.35316        -161.868         -53.0547        -138.366         -52.4882        -140.993       -0.0140988         145.883
0.577                   -1.38316         -162.47          -52.922        -141.128         -52.3544        -143.725       -0.0142502         145.809
0.578                   -1.41365        -163.076         -52.7876        -143.909         -52.2197        -146.475       -0.0144036         145.735
0.579                   -1.44463        -163.684         -52.6511        -146.711          -52.084        -149.241       -0.0145592         145.662
0.58                    -1.47611        -164.294         -52.5127        -149.533         -51.9473        -152.023        -0.014717         145.588
0.581                   -1.50809        -164.908         -52.3723        -152.372         -51.8096        -154.822        -0.014877         145.513
0.582                   -1.54058        -165.525         -52.2298         -155.23         -51.6709        -157.635       -0.0150392         145.439
0.583                    -1.5736        -166.144         -52.0853        -158.104          -51.531        -160.463       -0.0152038         145.365
0.584                   -1.60715        -166.766         -51.9387        -160.995           -51.39        -163.305       -0.0153706          145.29
0.585                   -1.64124        -167.391           -51.79          -163.9          -51.248         -166.16       -0.0155399         145.215
0.586                   -1.67588        -168.019         -51.6392         -166.82         -51.1047        -169.027       -0.0157116          145.14
0.587                   -1.71108        -168.651         -51.4865        -169.752         -50.9603        -171.906       -0.0158858         145.065
0.588                   -1.74685        -169.285         -51.3317        -172.697         -50.8148        -174.796       -0.0160625          144.99
0.589                    -1.7832        -169.922          -51.175        -175.653         -50.6682        -177.697       -0.0162417         144.914
0.59                    -1.82014        -170.563         -51.0164         -178.62         -50.5204         179.394       -0.0164236         144.839
0.591                   -1.85769        -171.206          -50.856         178.405         -50.3716         176.476       -0.0166081         144.763
0.592                   -1.89585        -171.853         -50.6939         175.421         -50.2217          173.55       -0.0167953         144.687
0.593                   -1.93464        -172.503         -50.5301          172.43         -50.0708         170.617       -0.0169853         144.611
0.594                   -1.97408        -173.157         -50.3647         169.432         -49.9189         167.678        -0.017178         144.534
0.595                   -2.01417        -173.813         -50.1979         166.429         -49.7661         164.733       -0.0173737         144.458
0.596                   -2.05493        -174.473         -50.0298         163.421         -49.6125         161.784       -0.0175722         144.381
0.597                   -2.09638        -175.137         -49.8604         160.409          -49.458         158.831       -0.0177737         144.304
0.598                   -2.13853        -175.804         -49.6899         157.395         -49.3028         155.875       -0.0179782         144.227
0.599                    -2.1814        -176.474         -49.5185         154.378         -49.1469         152.916       -0.0181858          144.15
0.6                     -2.22501        -177.148         -49.3462          151.36         -48.9904         149.956       -0.0183965         144.072
0.601                   -2.26937        -177.826         -49.1732         148.342         -48.8334         146.994       -0.0186104         143.995
0.602                   -2.31451        -178.507         -48.9997         145.324          -48.676         144.032       -0.0188275         143.917
0.603                   -2.36044        -179.192         -48.8257         142.306         -48.5181         141.071        -0.019048         143.839
0.604                   -2.40718        -179.881         -48.6515          139.29           -48.36          138.11       -0.0192718          143.76
0.605                   -2.45475         179.427         -48.4771         136.276         -48.2017          135.15       -0.0194991         143.682
0.606                   -2.50319         178.731         -48.3027         133.265         -48.0433         132.193       -0.0197298         143.603
0.607                    -2.5525         178.031         -48.1284         130.256         -47.8848         129.238       -0.0199641         143.524
0.608                   -2.60272         177.327         -47.9544         127.252         -47.7265         126.285        -0.020202         143.445
0.609                   -2.65388          176.62         -47.7808         124.251         -47.5682         123.337       -0.0204437         143.366
0.61                    -2.70599         175.908         -47.6076         121.255         -47.4102         120.392       -0.0206891         143.286
0.611                   -2.75908         175.193         -47.4352         118.264         -47.2524         117.451       -0.0209383         143.207
0.612                   -2.81319         174.474         -47.2635         115.278         -47.0951         114.515       -0.0211914         143.127
0.613                   -2.86835          173.75         -47.0927         112.297         -46.9383         111.584       -0.0214486         143.046
0.614                   -2.92458         173.023         -46.9228         109.323         -46.7819         108.658       -0.0217097         142.966
0.615                   -2.98192         172.292         -46.7541         106.355         -46.6262         105.738       -0.0219751         142.885
0.616                    -3.0404         171.557         -46.5865         103.393         -46.4712         102.823       -0.0222446         142.804
0.617                   -3.10007         170.817         -46.4202         100.439          -46.317         99.9145       -0.0225184         142.723
0.618                   -3.16094         170.074         -46.2553         97.4908         -46.1636         97.0121       -0.0227966         142.642
0.619                   -3.22308         169.327         -46.0918         94.5501          -46.011         94.1161       -0.0230793          142.56
0.62                    -3.28651         168.576         -45.9298         91.6168         -45.8594         91.2266       -0.0233665         142.478
0.621                   -3.35127         167.821         -45.7694          88.691         -45.7089         88.3438       -0.0236583         142.396
0.622                   -3.41741         167.063         -45.6106         85.7728         -45.5593         85.4678       -0.0239549         142.314
0.623                   -3.48498           166.3         -45.4535         82.8623         -45.4109         82.5987       -0.0242563         142.231
0.624                   -3.55401         165.534         -45.2981         79.9598         -45.2636         79.7365       -0.0245625         142.148
0.625                   -3.62457         164.764         -45.1445         77.0652         -45.1175         76.8814       -0.0248738         142.065
0.626                   -3.69669         163.991         -44.9927         74.1787         -44.9726         74.0332       -0.0251902         141.982
0.627                   -3.77042         163.214         -44.8427         71.3002         -44.8289         71.1921       -0.0255118         141.898
0.628                   -3.84583         162.434         -44.6945         68.4298         -44.6865          68.358       -0.0258386         141.814
0.629                   -3.92296         161.651         -44.5482         65.5676         -44.5454         65.5309       -0.0261709          141.73
0.63                    -4.00187         160.865         -44.4037         62.7136         -44.4057         62.7109       -0.0265087         141.646
0.631                   -4.08261         160.076         -44.2611         59.8677         -44.2673         59.8977       -0.0268521         141.561
0.632                   -4.16525         159.284         -44.1203           57.03         -44.1302         57.0915       -0.0272012         141.476
0.633                   -4.24984          158.49         -43.9814         54.2003         -43.9945         54.2921       -0.0275561          141.39
0.634                   -4.33644         157.694         -43.8444         51.3787         -43.8601         51.4994       -0.0279169         141.305
0.635                   -4.42511         156.896         -43.7091          48.565         -43.7272         48.7134       -0.0282839         141.219
0.636                   -4.51591         156.097         -43.5756         45.7593         -43.5955         45.9339        -0.028657         141.133
0.637                   -4.60891         155.296          -43.444         42.9614         -43.4653         43.1608       -0.0290363         141.046
0.638                   -4.70416         154.495          -43.314         40.1713         -43.3364         40.3941       -0.0294221         140.959
0.639                   -4.80174         153.693         -43.1858         37.3887         -43.2089         37.6335       -0.0298145         140.872
0.64                    -4.90169         152.892         -43.0593         34.6136         -43.0827          34.879       -0.0302134         140.785
0.641                   -5.00408         152.091         -42.9344         31.8459         -42.9579         32.1303       -0.0306192         140.697
0.642                   -5.10896         151.291         -42.8111         29.0854         -42.8343         29.3874       -0.0310319         140.609
0.643                    -5.2164         150.493         -42.6894          26.332         -42.7121         26.6502       -0.0314516         140.521
0.644                   -5.32645         149.697         -42.5691         23.5855         -42.5911         23.9183       -0.0318784         140.432
0.645                   -5.43916         148.903         -42.4504         20.8456         -42.4714         21.1917       -0.0323126         140.343
0.646                   -5.55458         148.114         -42.3331         18.1123         -42.3529         18.4702       -0.0327541         140.253
0.647                   -5.67275         147.329         -42.2171         15.3854         -42.2356         15.7537       -0.0332032         140.164
0.648                   -5.79371         146.549         -42.1025         12.6646         -42.1195         13.0419         -0.03366         140.074
0.649                   -5.91749         145.775         -41.9891         9.94977         -42.0045         10.3346       -0.0341246         139.983
0.65                    -6.04412         145.008          -41.877         7.24067         -41.8907         7.63175       -0.0345971         139.892
0.651                   -6.17362         144.249          -41.766         4.53711         -41.7779         4.93309       -0.0350776         139.801
0.652                     -6.306         143.499         -41.6562         1.83886         -41.6662         2.23844       -0.0355663          139.71
0.653                   -6.44126         142.758         -41.5474       -0.854309         -41.5555       -0.452372       -0.0360632         139.618
0.654                   -6.57939         142.029         -41.4396        -3.54261         -41.4458        -3.13954       -0.0365686         139.526
0.655                   -6.72038         141.311         -41.3328        -6.22627          -41.337        -5.82325       -0.0370823         139.433
0.656                   -6.86418         140.606         -41.2269        -8.90552         -41.2292        -8.50368       -0.0376047          139.34
0.657                   -7.01075         139.915         -41.1218        -11.5806         -41.1222         -11.181       -0.0381357         139.246
0.658                   -7.16003         139.239         -41.0175        -14.2517          -41.016        -13.8555       -0.0386753         139.153
0.659                   -7.31196          138.58          -40.914        -16.9191         -40.9107        -16.5272       -0.0392237         139.058
0.66                    -7.46643         137.938         -40.8112         -19.583         -40.8061        -19.1963       -0.0397809         138.964
0.661                   -7.62334         137.315         -40.7091        -22.2437         -40.7023        -21.8631       -0.0403469         138.869
0.662                   -7.78258         136.711         -40.6075        -24.9013         -40.5991        -24.5277       -0.0409216         138.773
0.663                   -7.94399         136.128         -40.5065        -27.5561         -40.4966        -27.1903       -0.0415051         138.677
0.664                   -8.10743         135.567          -40.406        -30.2083         -40.3947         -29.851       -0.0420973         138.581
0.665                   -8.27273         135.028          -40.306        -32.8581         -40.2934          -32.51        -0.042698         138.484
0.666                   -8.43968         134.513         -40.2064        -35.5058         -40.1926        -35.1675       -0.0433073         138.387
0.667                    -8.6081         134.022         -40.1071        -38.1515         -40.0922        -37.8236       -0.0439248          138.29
0.668                   -8.77776         133.555         -40.0082        -40.7955         -39.9924        -40.4784       -0.0445506         138.191
0.669                   -8.94843         133.114         -39.9096        -43.4379          -39.893        -43.1322       -0.0451843         138.093
0.67                    -9.11987         132.699         -39.8112        -46.0789         -39.7939         -45.785       -0.0458258         137.994
0.671                   -9.29184         132.309         -39.7131        -48.7188         -39.6952         -48.437       -0.0464749         137.894
0.672                   -9.46408         131.945         -39.6151        -51.3577         -39.5968        -51.0883       -0.0471315         137.794
0.673                   -9.63633         131.606         -39.5173        -53.9958         -39.4987         -53.739       -0.0477954         137.694
0.674                   -9.80834         131.293         -39.4195        -56.6332         -39.4008        -56.3893       -0.0484666         137.593
0.675                   -9.97986         131.005         -39.3219        -59.2701         -39.3032        -59.0392       -0.0491453         137.491
0.676                   -10.1506          130.74         -39.2243        -61.9066         -39.2057        -61.6889       -0.0498316         137.389
0.677                   -10.3205         130.499         -39.1267         -64.543         -39.1083        -64.3385       -0.0505262         137.286
0.678                   -10.4891          130.28         -39.0291        -67.1793          -39.011         -66.988       -0.0512297         137.182
0.679                   -10.6564         130.081         -38.9315        -69.8156         -38.9139        -69.6375       -0.0519432         137.079
0.68                    -10.8221         129.903         -38.8338        -72.4522         -38.8168        -72.2872       -0.0526681         136.974
0.681                   -10.9862         129.742          -38.736         -75.089         -38.7197         -74.937       -0.0534061         136.869
0.682                   -11.1484         129.597         -38.6381        -77.7263         -38.6226        -77.5871       -0.0541591         136.763
0.683                   -11.3088         129.466         -38.5401         -80.364         -38.5254        -80.2375       -0.0549294         136.656
0.684                   -11.4674         129.349          -38.442        -83.0023         -38.4282        -82.8882       -0.0557192         136.549
0.685                    -11.624         129.242         -38.3437        -85.6413          -38.331        -85.5393       -0.0565311         136.441
0.686                   -11.7787         129.145         -38.2452         -88.281         -38.2336        -88.1909       -0.0573673         136.332
0.687                   -11.9316         129.054         -38.1466        -90.9215         -38.1361        -90.8429       -0.0582299         136.223
0.688                   -12.0829          128.97         -38.0477        -93.5629         -38.0385        -93.4954       -0.0591205         136.113
0.689                   -12.2327          128.89         -37.9487        -96.2051         -37.9406        -96.1485       -0.0600408         136.002
0.69                    -12.3811         128.812         -37.8494        -98.8483         -37.8427         -98.802       -0.0609917         135.891
0.691                   -12.5284         128.736           -37.75        -101.493         -37.7445        -101.456        -0.061974         135.778
0.692                   -12.6749          128.66         -37.6503        -104.138         -37.6461        -104.111       -0.0629879         135.665
0.693                   -12.8207         128.584         -37.5503        -106.784         -37.5475        -106.766       -0.0640337         135.552
0.694                   -12.9663         128.507         -37.4502        -109.431         -37.4486        -109.422       -0.0651111         135.438
0.695                    -13.112         128.429         -37.3498         -112.08         -37.3495        -112.078       -0.0662201         135.323
0.696                    -13.258         128.349         -37.2491        -114.729         -37.2501        -114.735       -0.0673603         135.207
0.697                   -13.4048         128.269         -37.1483        -117.379         -37.1505        -117.392       -0.0685315          135.09