! TOUCHSTONE file generated by CST MICROWAVE STUDIO
! Date and time: Sat Oct 24 10:45:09 2020
! Project name: Scenario_1_Planar_Body_Tissue_Center.cst
! Parameters = {hfat=3; hmuscle=50; hskin=1.5; hgap=25; Wtissue=700; Ltissue=700; L_HA=400; MT=2.54; Rad_Dielectric=30; Rad_Lower=7.3; Rad_Upper=30; a_HA=580; a_WG=246; b_HA=500; b_WG=121; c_HA=0; c_WG=187; d_feed=85; dx1=450.12; h_feed=15; h_lower=18; h_upper=40}
! Header version: 2018
! Port assignment regex: !\s*Touchstone port\s*([0-9]+)\s*=\s*(CST MWS port|CST DS port)\s*([0-9]+|Zmin|Zmax)\s*\(\"(.*)\"\)(\s*mode\s*([0-9]+))?.*
! Touchstone port assignment:
! Touchstone port 1 = CST MWS port 1 ("")
! Touchstone port 2 = CST MWS port 2 ("")
# GHz S DB R 50
0.5                    -0.101549        -121.468          -60.562        -21.4825         -60.5624        -21.4825      -0.00761591         151.142
0.501                  -0.102578        -121.907         -60.4383        -22.4364         -60.4386        -22.4358      -0.00767501         151.077
0.502                  -0.103696         -122.35          -60.312        -23.3929         -60.3124        -23.3917      -0.00773467         151.012
0.503                  -0.104908        -122.795         -60.1832        -24.3521         -60.1836        -24.3504      -0.00779488         150.946
0.504                  -0.106216        -123.244         -60.0519         -25.314         -60.0523        -25.3119      -0.00785565         150.881
0.505                  -0.107627        -123.696         -59.9179        -26.2787         -59.9183        -26.2762      -0.00791699         150.815
0.506                  -0.109144        -124.151         -59.7812        -27.2463         -59.7816        -27.2433      -0.00797889          150.75
0.507                  -0.110774         -124.61         -59.6418        -28.2168         -59.6422        -28.2135      -0.00804136         150.684
0.508                  -0.112521        -125.072         -59.4997        -29.1904         -59.5001        -29.1867       -0.0081044         150.618
0.509                  -0.114392        -125.538         -59.3547        -30.1671         -59.3551        -30.1631      -0.00816802         150.552
0.51                   -0.116393        -126.008         -59.2069         -31.147         -59.2072        -31.1427      -0.00823222         150.486
0.511                  -0.118531        -126.481         -59.0561        -32.1303         -59.0565        -32.1258        -0.008297          150.42
0.512                  -0.120814        -126.958         -58.9024        -33.1172         -58.9027        -33.1124      -0.00836236         150.354
0.513                  -0.123249        -127.439         -58.7456        -34.1078         -58.7459        -34.1028      -0.00842831         150.288
0.514                  -0.125844        -127.924         -58.5857        -35.1023          -58.586        -35.0971      -0.00849486         150.222
0.515                   -0.12861        -128.413         -58.4227        -36.1009          -58.423        -36.0956        -0.008562         150.155
0.516                  -0.131557        -128.907         -58.2565        -37.1038         -58.2568        -37.0985      -0.00862973         150.089
0.517                  -0.134694        -129.404         -58.0871        -38.1114         -58.0874        -38.1059      -0.00869808         150.022
0.518                  -0.138034        -129.907         -57.9143        -39.1238         -57.9146        -39.1183      -0.00876703         149.956
0.519                  -0.141589        -130.413         -57.7382        -40.1415         -57.7384        -40.1359      -0.00883659         149.889
0.52                   -0.145372        -130.925         -57.5586        -41.1646         -57.5588        -41.1591      -0.00890677         149.822
0.521                  -0.149399        -131.441         -57.3755        -42.1937         -57.3757        -42.1882      -0.00897758         149.755
0.522                  -0.153686        -131.963         -57.1889         -43.229          -57.189        -43.2236        -0.009049         149.688
0.523                  -0.158249        -132.489         -56.9986        -44.2711         -56.9987        -44.2657      -0.00912107         149.621
0.524                  -0.163108        -133.021         -56.8046        -45.3203         -56.8047         -45.315      -0.00919377         149.554
0.525                  -0.168283        -133.558         -56.6068        -46.3772         -56.6069         -46.372      -0.00926711         149.487
0.526                  -0.173797        -134.101         -56.4052        -47.4423         -56.4052        -47.4373      -0.00934111          149.42
0.527                  -0.179674         -134.65         -56.1996        -48.5163         -56.1997        -48.5114      -0.00941577         149.352
0.528                  -0.185941        -135.204         -55.9901        -49.5997         -55.9901        -49.5949       -0.0094911         149.285
0.529                  -0.192627        -135.765         -55.7765        -50.6932         -55.7765        -50.6886      -0.00956711         149.217
0.53                   -0.199763        -136.332         -55.5587        -51.7976         -55.5587        -51.7932      -0.00964382         149.149
0.531                  -0.207386        -136.906         -55.3367        -52.9136         -55.3367        -52.9095      -0.00972122         149.082
0.532                  -0.215532        -137.486         -55.1104        -54.0422         -55.1103        -54.0383      -0.00979934         149.014
0.533                  -0.224245        -138.074         -54.8797        -55.1842         -54.8796        -55.1805      -0.00987819         148.946
0.534                  -0.233571        -138.669         -54.6445        -56.3407         -54.6444        -56.3372       -0.0099578         148.877
0.535                  -0.243561        -139.271         -54.4047        -57.5127         -54.4046        -57.5094       -0.0100382         148.809
0.536                  -0.254271        -139.881         -54.1603        -58.7014         -54.1602        -58.6984       -0.0101193         148.741
0.537                  -0.265763        -140.498         -53.9112         -59.908         -53.9111        -59.9052       -0.0102013         148.672
0.538                  -0.278107        -141.125         -53.6572        -61.1339         -53.6571        -61.1314       -0.0102842         148.604
0.539                  -0.291379        -141.759         -53.3984        -62.3806         -53.3983        -62.3783       -0.0103679         148.535
0.54                   -0.305662        -142.403         -53.1346        -63.6496         -53.1345        -63.6475       -0.0104526         148.466
0.541                  -0.321051        -143.055         -52.8657        -64.9426         -52.8656        -64.9408       -0.0105382         148.398
0.542                  -0.337649        -143.717         -52.5917        -66.2614         -52.5916        -66.2598       -0.0106249         148.329
0.543                  -0.355572        -144.388         -52.3125        -67.6081         -52.3123        -67.6068       -0.0107126         148.259
0.544                  -0.374948         -145.07          -52.028        -68.9848         -52.0279        -68.9837       -0.0108015          148.19
0.545                   -0.39592        -145.761         -51.7381        -70.3938          -51.738        -70.3928       -0.0108917         148.121
0.546                  -0.418647        -146.463          -51.443        -71.8375         -51.4429        -71.8368       -0.0109832         148.051
0.547                  -0.443307        -147.175         -51.1424        -73.3188         -51.1423        -73.3182       -0.0110762         147.982
0.548                  -0.470097        -147.898         -50.8363        -74.8404         -50.8363        -74.8401       -0.0111708         147.912
0.549                  -0.499238        -148.631         -50.5249        -76.4057         -50.5248        -76.4055       -0.0112671         147.842
0.55                   -0.530974        -149.376          -50.208        -78.0179          -50.208        -78.0179       -0.0113653         147.772
0.551                   -0.56558        -150.131         -49.8858        -79.6807         -49.8858        -79.6809       -0.0114657         147.702
0.552                  -0.603358        -150.896         -49.5584        -81.3982         -49.5583        -81.3984       -0.0115684         147.632
0.553                  -0.644645        -151.671         -49.2258        -83.1744         -49.2257        -83.1748       -0.0116738         147.561
0.554                  -0.689813        -152.456         -48.8882        -85.0141         -48.8882        -85.0145       -0.0117821         147.491
0.555                  -0.739272        -153.249          -48.546        -86.9219          -48.546        -86.9224       -0.0118937          147.42
0.556                   -0.79347        -154.049         -48.1993        -88.9031         -48.1994        -88.9037        -0.012009         147.349
0.557                  -0.852897        -154.854         -47.8487         -90.963         -47.8487        -90.9637       -0.0121285         147.279
0.558                  -0.918076        -155.662         -47.4946        -93.1075         -47.4946        -93.1082       -0.0122527         147.207
0.559                  -0.989568        -156.471         -47.1375        -95.3425         -47.1376        -95.3432       -0.0123822         147.136
0.56                    -1.06795        -157.276         -46.7784         -97.674         -46.7785        -97.6747       -0.0125176         147.065
0.561                   -1.15383        -158.072          -46.418        -100.108         -46.4181        -100.109       -0.0126595         146.993
0.562                   -1.24777        -158.854         -46.0574        -102.651         -46.0575        -102.652       -0.0128088         146.922
0.563                   -1.35032        -159.615         -45.6979        -105.309          -45.698         -105.31       -0.0129663          146.85
0.564                   -1.46194        -160.345          -45.341        -108.088         -45.3411        -108.088       -0.0131326         146.778
0.565                   -1.58291        -161.034         -44.9883        -110.991         -44.9884        -110.992       -0.0133085         146.706
0.566                   -1.71333         -161.67         -44.6418        -114.023         -44.6419        -114.024       -0.0134948         146.634
0.567                   -1.85294        -162.239         -44.3036        -117.187         -44.3037        -117.187        -0.013692         146.561
0.568                   -2.00106        -162.726         -43.9761        -120.482         -43.9762        -120.482       -0.0139004         146.489
0.569                   -2.15644        -163.113         -43.6617        -123.907         -43.6618        -123.907       -0.0141203         146.416
0.57                    -2.31712        -163.385         -43.3631        -127.458         -43.3632        -127.458       -0.0143513         146.344
0.571                   -2.48036        -163.526         -43.0831        -131.128         -43.0831        -131.128       -0.0145929         146.271
0.572                   -2.64259        -163.523         -42.8241        -134.906         -42.8241        -134.906       -0.0148442         146.198
0.573                   -2.79939        -163.368         -42.5887        -138.777         -42.5887        -138.777       -0.0151035         146.125
0.574                   -2.94577        -163.061          -42.379        -142.726          -42.379        -142.726       -0.0153691         146.052
0.575                   -3.07642        -162.611         -42.1967        -146.731         -42.1967        -146.731       -0.0156389          145.98
0.576                    -3.1862        -162.035         -42.0431        -150.771          -42.043        -150.771       -0.0159103         145.906
0.577                   -3.27075        -161.364         -41.9187        -154.821         -41.9186        -154.821        -0.016181         145.833
0.578                   -3.32693        -160.632         -41.8235        -158.858         -41.8234        -158.859       -0.0164485          145.76
0.579                   -3.35331        -159.883         -41.7567        -162.859         -41.7567        -162.859       -0.0167107         145.687
0.58                    -3.35026        -159.157         -41.7172        -166.801         -41.7171        -166.801       -0.0169659         145.614
0.581                   -3.31987        -158.494          -41.703        -170.664          -41.703        -170.665       -0.0172127          145.54
0.582                   -3.26555        -157.925         -41.7121        -174.433          -41.712        -174.433       -0.0174504         145.467
0.583                   -3.19156        -157.473         -41.7417        -178.093         -41.7417        -178.094       -0.0176784         145.393
0.584                   -3.10251        -157.152         -41.7894         178.365         -41.7894         178.364       -0.0178969          145.32
0.585                   -3.00287        -156.968         -41.8525         174.948         -41.8524         174.948       -0.0181063         145.246
0.586                   -2.89674        -156.918         -41.9283         171.661         -41.9282          171.66       -0.0183073         145.172
0.587                    -2.7876        -156.998         -42.0142         168.503         -42.0142         168.503       -0.0185006         145.097
0.588                   -2.67826        -157.197         -42.1081         165.475         -42.1081         165.475       -0.0186873         145.023
0.589                   -2.57092        -157.504         -42.2078         162.574         -42.2078         162.573       -0.0188684         144.948
0.59                    -2.46718        -157.908         -42.3114         159.795         -42.3113         159.795       -0.0190449         144.873
0.591                   -2.36817        -158.396         -42.4172         157.134         -42.4171         157.134       -0.0192178         144.798
0.592                   -2.27459        -158.958         -42.5237         154.585         -42.5237         154.585       -0.0193879         144.723
0.593                   -2.18687        -159.585         -42.6299         152.142         -42.6299         152.142       -0.0195561         144.648
0.594                   -2.10518        -160.266         -42.7345         149.799         -42.7345         149.799       -0.0197233         144.572
0.595                   -2.02954        -160.995         -42.8368         147.549         -42.8368         147.549       -0.0198899         144.496
0.596                   -1.95983        -161.765          -42.936         145.387          -42.936         145.387       -0.0200567          144.42
0.597                   -1.89589        -162.571         -43.0315         143.306         -43.0314         143.306       -0.0202241         144.344
0.598                   -1.83745        -163.407         -43.1227           141.3         -43.1227           141.3       -0.0203926         144.267
0.599                   -1.78428         -164.27         -43.2094         139.365         -43.2094         139.365       -0.0205626         144.191
0.6                     -1.73608        -165.157         -43.2912         137.494         -43.2912         137.494       -0.0207344         144.114
0.601                   -1.69259        -166.065         -43.3678         135.683         -43.3678         135.683       -0.0209082         144.037
0.602                   -1.65353        -166.992         -43.4391         133.927         -43.4391         133.928       -0.0210844         143.959
0.603                   -1.61866        -167.936          -43.505         132.222          -43.505         132.223       -0.0212631         143.882
0.604                   -1.58773        -168.895         -43.5653         130.564         -43.5653         130.565       -0.0214446         143.804
0.605                   -1.56052         -169.87           -43.62         128.949           -43.62          128.95       -0.0216289         143.726
0.606                   -1.53683        -170.858         -43.6691         127.374          -43.669         127.374       -0.0218162         143.648
0.607                   -1.51647        -171.859         -43.7125         125.834         -43.7125         125.835       -0.0220067         143.569
0.608                   -1.49928        -172.874         -43.7503         124.327         -43.7502         124.328       -0.0222004          143.49
0.609                   -1.48512        -173.901         -43.7825         122.851         -43.7824         122.852       -0.0223974         143.412
0.61                    -1.47385         -174.94         -43.8091         121.402         -43.8091         121.403       -0.0225979         143.332
0.611                   -1.46535        -175.992         -43.8303         119.977         -43.8302         119.979       -0.0228018         143.253
0.612                   -1.45954        -177.056         -43.8459         118.576         -43.8458         118.577       -0.0230094         143.174
0.613                   -1.45633        -178.133         -43.8562         117.194         -43.8561         117.195       -0.0232206         143.094
0.614                   -1.45564        -179.223         -43.8611          115.83          -43.861         115.831       -0.0234355         143.014
0.615                   -1.45744         179.675         -43.8608         114.482         -43.8607         114.484       -0.0236542         142.933
0.616                   -1.46167         178.558         -43.8554         113.149         -43.8552          113.15       -0.0238767         142.853
0.617                    -1.4683         177.428         -43.8448         111.827         -43.8446         111.829       -0.0241031         142.772
0.618                   -1.47732         176.284         -43.8292         110.517          -43.829         110.518       -0.0243335         142.691
0.619                   -1.48873         175.125         -43.8087         109.215         -43.8085         109.216        -0.024568          142.61
0.62                    -1.50252         173.951         -43.7833          107.92         -43.7831         107.922       -0.0248065         142.528
0.621                   -1.51872         172.761         -43.7532         106.632          -43.753         106.633       -0.0250492         142.447
0.622                   -1.53735         171.556         -43.7184         105.348         -43.7182         105.349       -0.0252961         142.365
0.623                   -1.55845         170.333          -43.679         104.066         -43.6788         104.067       -0.0255473         142.282
0.624                   -1.58207         169.093         -43.6351         102.787         -43.6349         102.788       -0.0258029           142.2
0.625                   -1.60827         167.835         -43.5868         101.507         -43.5866         101.508       -0.0260629         142.117
0.626                   -1.63713         166.558         -43.5342         100.227          -43.534         100.228       -0.0263274         142.034
0.627                   -1.66872         165.262         -43.4774         98.9439         -43.4772          98.945       -0.0265965         141.951
0.628                   -1.70313         163.946         -43.4165         97.6577         -43.4163         97.6587       -0.0268703         141.867
0.629                   -1.74049         162.609         -43.3515         96.3668         -43.3513         96.3678       -0.0271489         141.783
0.63                     -1.7809          161.25         -43.2827           95.07         -43.2824          95.071       -0.0274323         141.699
0.631                   -1.82449          159.87           -43.21         93.7662         -43.2097         93.7671       -0.0277206         141.615
0.632                   -1.87142         158.466         -43.1336         92.4542         -43.1333         92.4551       -0.0280139          141.53
0.633                   -1.92184         157.039         -43.0536          91.133         -43.0533         91.1338       -0.0283124         141.445
0.634                   -1.97592         155.587         -42.9701         89.8014         -42.9699         89.8021       -0.0286161          141.36
0.635                   -2.03386         154.109         -42.8833         88.4583         -42.8831          88.459       -0.0289251         141.274
0.636                   -2.09586         152.605         -42.7933         87.1028         -42.7931         87.1034       -0.0292396         141.188
0.637                   -2.16215         151.074         -42.7002         85.7336         -42.6999         85.7342       -0.0295596         141.102
0.638                   -2.23296         149.515         -42.6041           84.35         -42.6039         84.3505       -0.0298853         141.015
0.639                   -2.30857         147.927         -42.5052         82.9507          -42.505         82.9512       -0.0302167         140.928
0.64                    -2.38925         146.309         -42.4037         81.5349         -42.4035         81.5354        -0.030554         140.841
0.641                   -2.47531         144.661         -42.2998         80.1017         -42.2996         80.1021       -0.0308974         140.754
0.642                   -2.56708          142.98         -42.1935           78.65         -42.1933         78.6504        -0.031247         140.666
0.643                   -2.66491         141.267         -42.0851         77.1792         -42.0849         77.1795       -0.0316028         140.578
0.644                    -2.7692         139.521         -41.9748         75.6882         -41.9746         75.6885       -0.0319651         140.489
0.645                   -2.88034          137.74         -41.8627         74.1764         -41.8625         74.1766        -0.032334         140.401
0.646                   -2.99878         135.923         -41.7491          72.643         -41.7489         72.6432       -0.0327096         140.311
0.647                     -3.125         134.071         -41.6342         71.0874         -41.6341         71.0875        -0.033092         140.222
0.648                    -3.2595         132.181         -41.5183         69.5089         -41.5181         69.5091       -0.0334816         140.132
0.649                   -3.40284         130.252         -41.4015         67.9071         -41.4013         67.9072       -0.0338783         140.042
0.65                     -3.5556         128.285         -41.2841         66.2815          -41.284         66.2816       -0.0342824         139.951
0.651                   -3.71841         126.278         -41.1664         64.6319         -41.1663         64.6319       -0.0346941          139.86
0.652                   -3.89196         124.229         -41.0486         62.9578         -41.0485         62.9579       -0.0351135         139.769
0.653                   -4.07697         122.139         -40.9311         61.2594          -40.931         61.2594       -0.0355407         139.677
0.654                   -4.27424         120.005          -40.814         59.5364         -40.8139         59.5365       -0.0359761         139.585
0.655                    -4.4846         117.828         -40.6977         57.7892         -40.6977         57.7893       -0.0364196         139.493
0.656                   -4.70898         115.606         -40.5825          56.018         -40.5825         56.0181       -0.0368717           139.4
0.657                   -4.94835         113.338         -40.4687         54.2233         -40.4686         54.2233       -0.0373323         139.307
0.658                    -5.2038         111.024         -40.3565         52.4055         -40.3564         52.4055       -0.0378018         139.213
0.659                   -5.47648          108.66         -40.2462         50.5655         -40.2462         50.5655       -0.0382802         139.119
0.66                    -5.76766         106.247         -40.1382         48.7042         -40.1382         48.7043       -0.0387679         139.024
0.661                   -6.07872         103.783         -40.0327         46.8227         -40.0326         46.8228       -0.0392649         138.929
0.662                   -6.41118         101.264         -39.9299         44.9223         -39.9299         44.9223       -0.0397715         138.834
0.663                   -6.76672         98.6901         -39.8301         43.0042         -39.8301         43.0043       -0.0402878         138.738
0.664                   -7.14721         96.0567         -39.7336         41.0702         -39.7336         41.0703       -0.0408141         138.642
0.665                   -7.55473         93.3603         -39.6406          39.122         -39.6406         39.1221       -0.0413505         138.545
0.666                   -7.99163          90.596         -39.5512         37.1614         -39.5512         37.1615       -0.0418971         138.448
0.667                   -8.46058         87.7574         -39.4657         35.1904         -39.4657         35.1905       -0.0424542         138.351
0.668                   -8.96462         84.8365         -39.3842         33.2111         -39.3842         33.2112        -0.043022         138.253
0.669                   -9.50729         81.8226         -39.3067         31.2258         -39.3067         31.2259       -0.0436005         138.154
0.67                    -10.0927         78.7015         -39.2335         29.2366         -39.2335         29.2367       -0.0441899         138.055
0.671                   -10.7257         75.4545         -39.1645         27.2459         -39.1645          27.246       -0.0447905         137.955
0.672                    -11.412         72.0564         -39.0998         25.2561         -39.0998         25.2562       -0.0454023         137.855
0.673                   -12.1585         68.4725         -39.0393         23.2695         -39.0393         23.2696       -0.0460256         137.755
0.674                   -12.9735          64.655          -38.983         21.2883          -38.983         21.2885       -0.0466604         137.654
0.675                   -13.8671         60.5358         -38.9309         19.3151         -38.9309         19.3152       -0.0473069         137.552
0.676                   -14.8514         56.0163         -38.8828         17.3518         -38.8828         17.3519       -0.0479653          137.45
0.677                   -15.9408         50.9504         -38.8387         15.4007         -38.8387         15.4008       -0.0486358         137.348
0.678                   -17.1513         45.1147         -38.7983         13.4637         -38.7983         13.4638       -0.0493185         137.245
0.679                   -18.4977         38.1601         -38.7614         11.5429         -38.7614          11.543       -0.0500135         137.141
0.68                    -19.9845         29.5319         -38.7279         9.63991          -38.728         9.63999       -0.0507212         137.037
0.681                   -21.5792         18.3699         -38.6976         7.75642         -38.6976         7.75648       -0.0514417         136.932
0.682                   -23.1462         3.51957         -38.6702         5.89387         -38.6702         5.89393       -0.0521751         136.827
0.683                   -24.3443        -15.8027         -38.6454         4.05359         -38.6454         4.05363       -0.0529219         136.721
0.684                   -24.6862         -38.119          -38.623         2.23671          -38.623         2.23674       -0.0536822         136.614
0.685                   -24.0244        -59.2474         -38.6027         0.44422         -38.6027        0.444242       -0.0544563         136.507
0.686                    -22.757        -76.1692         -38.5842        -1.32307         -38.5842        -1.32306       -0.0552446         136.399
0.687                   -21.3283        -88.8609         -38.5673         -3.0645         -38.5673        -3.06449       -0.0560473          136.29
0.688                   -19.9602        -98.4596         -38.5517        -4.77956         -38.5517        -4.77957       -0.0568648         136.181
0.689                   -18.7223        -105.989          -38.537         -6.4679         -38.5371        -6.46792       -0.0576976         136.072
0.69                    -17.6225         -112.14         -38.5231         -8.1293         -38.5232        -8.12933       -0.0585459         135.961
0.691                   -16.6486        -117.349         -38.5097        -9.76368         -38.5097        -9.76371       -0.0594104          135.85
0.692                   -15.7841        -121.894         -38.4964        -11.3711         -38.4964        -11.3711       -0.0602913         135.738
0.693                   -15.0135        -125.955         -38.4831        -12.9516         -38.4831        -12.9517       -0.0611893         135.626
0.694                   -14.3233        -129.654         -38.4694        -14.5056         -38.4695        -14.5056       -0.0621048         135.512
0.695                   -13.7021        -133.074         -38.4552        -16.0333         -38.4553        -16.0333       -0.0630384         135.398
0.696                   -13.1407        -136.274         -38.4403        -17.5352         -38.4403        -17.5352       -0.0639906         135.283