! TOUCHSTONE file generated by CST MICROWAVE STUDIO
! Date and time: Sat Oct 24 10:48:47 2020
! Project name: Scenario_1_Planar_Body_Tissue_Center.cst
! Parameters = {hfat=3; hmuscle=50; hskin=1.5; hgap=25; Wtissue=700; Ltissue=700; L_HA=400; MT=2.54; Rad_Dielectric=30; Rad_Lower=7.3; Rad_Upper=30; a_HA=580; a_WG=246; b_HA=500; b_WG=121; c_HA=0; c_WG=187; d_feed=85; dx1=917.76; h_feed=15; h_lower=18; h_upper=40}
! Header version: 2018
! Port assignment regex: !\s*Touchstone port\s*([0-9]+)\s*=\s*(CST MWS port|CST DS port)\s*([0-9]+|Zmin|Zmax)\s*\(\"(.*)\"\)(\s*mode\s*([0-9]+))?.*
! Touchstone port assignment:
! Touchstone port 1 = CST MWS port 1 ("")
! Touchstone port 2 = CST MWS port 2 ("")
# GHz S DB R 50
0.5                    -0.150197        -122.375         -62.0201         76.1186         -62.0208          76.123      -0.00762048         151.138
0.501                  -0.159296        -122.754         -61.5663         74.8395         -61.5701         74.8295      -0.00769478         151.072
0.502                  -0.168229        -123.134         -61.0984         73.4028         -61.1056         73.3802      -0.00776955         151.007
0.503                     -0.177        -123.517         -60.6171         71.7893         -60.6281         71.7562      -0.00784481         150.942
0.504                   -0.18561        -123.902         -60.1236         69.9779         -60.1385         69.9367      -0.00792055         150.876
0.505                  -0.194063         -124.29         -59.6194         67.9452         -59.6385         67.8992      -0.00799677         150.811
0.506                  -0.202361         -124.68         -59.1069         65.6667         -59.1305         65.6194      -0.00807347         150.745
0.507                  -0.210505        -125.072         -58.5894         63.1163         -58.6176         63.0721      -0.00815066          150.68
0.508                    -0.2185        -125.467         -58.0712         60.2683         -58.1041         60.2322      -0.00822835         150.614
0.509                  -0.226348        -125.864         -57.5579         57.0988         -57.5955         57.0764      -0.00830652         150.548
0.51                   -0.234053        -126.264         -57.0567         53.5882         -57.0988         53.5856      -0.00838519         150.482
0.511                  -0.241616        -126.667         -56.5762         49.7246         -56.6221         49.7483      -0.00846435         150.416
0.512                  -0.249042        -127.072         -56.1261         45.5085         -56.1753         45.5645      -0.00854402          150.35
0.513                  -0.256334         -127.48         -55.7175         40.9566         -55.7689         41.0503      -0.00862418         150.284
0.514                  -0.263496        -127.892         -55.3612         36.1061         -55.4135         36.2413      -0.00870484         150.218
0.515                  -0.270531        -128.306         -55.0671         31.0161         -55.1188         31.1941      -0.00878601         150.152
0.516                  -0.277443        -128.723         -54.8429         25.7657         -54.8923         25.9852      -0.00886769         150.085
0.517                  -0.284236        -129.144         -54.6926         20.4485         -54.7384         20.7049      -0.00894987         150.019
0.518                  -0.290915        -129.568         -54.6162         15.1631         -54.6571         15.4494      -0.00903257         149.952
0.519                  -0.297484        -129.995         -54.6094         10.0025         -54.6448         10.3102      -0.00911578         149.886
0.52                   -0.303949        -130.425         -54.6648         5.04543         -54.6942         5.36535      -0.00919951         149.819
0.521                  -0.310313        -130.859         -54.7723        0.350313         -54.7957        0.673623      -0.00928377         149.752
0.522                  -0.316582        -131.297         -54.9211        -4.04628         -54.9389        -3.72726      -0.00936854         149.685
0.523                  -0.322763        -131.738         -55.1005         -8.1279         -55.1132        -7.81933      -0.00945384         149.618
0.524                   -0.32886        -132.183         -55.3006        -11.8944         -55.3088        -11.6008      -0.00953967         149.551
0.525                   -0.33488        -132.631         -55.5129        -15.3574         -55.5174         -15.082      -0.00962603         149.484
0.526                   -0.34083        -133.084         -55.7305        -18.5363          -55.732        -18.2809      -0.00971292         149.417
0.527                  -0.346716        -133.541         -55.9479        -21.4546         -55.9469          -21.22      -0.00980034          149.35
0.528                  -0.352546        -134.002         -56.1606        -24.1376         -56.1578         -23.924       -0.0098883         149.282
0.529                  -0.358327        -134.467         -56.3657        -26.6105         -56.3614        -26.4174       -0.0099768         149.215
0.53                   -0.364068        -134.937         -56.5607        -28.8973         -56.5554         -28.724       -0.0100658         149.147
0.531                  -0.369778        -135.411          -56.744        -31.0205         -56.7381         -30.866       -0.0101554         149.079
0.532                  -0.375466         -135.89         -56.9145        -33.0006         -56.9083        -32.8638       -0.0102456         149.012
0.533                  -0.381142        -136.373         -57.0717        -34.8559         -57.0653        -34.7355       -0.0103362         148.944
0.534                  -0.386816        -136.861          -57.215        -36.6029         -57.2087        -36.4978       -0.0104275         148.876
0.535                    -0.3925        -137.355         -57.3444        -38.2562         -57.3383        -38.1652       -0.0105193         148.808
0.536                  -0.398206        -137.853         -57.4598        -39.8287         -57.4541        -39.7506       -0.0106116         148.739
0.537                  -0.403947        -138.357         -57.5615        -41.3319         -57.5562        -41.2656       -0.0107045         148.671
0.538                  -0.409736        -138.866         -57.6496        -42.7758         -57.6449        -42.7203        -0.010798         148.603
0.539                  -0.415589        -139.381         -57.7245        -44.1695         -57.7202        -44.1236       -0.0108921         148.534
0.54                   -0.421521        -139.901         -57.7863        -45.5207         -57.7827        -45.4837       -0.0109867         148.466
0.541                   -0.42755        -140.428         -57.8356        -46.8364         -57.8325        -46.8074        -0.011082         148.397
0.542                  -0.433692         -140.96         -57.8725         -48.123         -57.8701        -48.1011       -0.0111778         148.328
0.543                   -0.43997        -141.499         -57.8975        -49.3859         -57.8957        -49.3704       -0.0112743         148.259
0.544                  -0.446402        -142.044         -57.9108          -50.63         -57.9097        -50.6203       -0.0113713          148.19
0.545                  -0.453014        -142.596         -57.9129        -51.8599         -57.9124        -51.8553        -0.011469         148.121
0.546                  -0.459828        -143.154          -57.904        -53.0795         -57.9041        -53.0794       -0.0115673         148.052
0.547                  -0.466872         -143.72         -57.8845        -54.2925         -57.8851        -54.2963       -0.0116663         147.982
0.548                  -0.474175        -144.292         -57.8546        -55.5021         -57.8558        -55.5093       -0.0117659         147.913
0.549                  -0.481768        -144.872         -57.8147        -56.7114         -57.8163        -56.7216       -0.0118662         147.843
0.55                   -0.489684         -145.46         -57.7649         -57.923          -57.767        -57.9358       -0.0119672         147.774
0.551                  -0.497962        -146.056         -57.7055        -59.1396         -57.7082        -59.1545        -0.012069         147.704
0.552                  -0.506641         -146.66         -57.6369        -60.3636           -57.64        -60.3802       -0.0121714         147.634
0.553                  -0.515764        -147.272         -57.5592         -61.597         -57.5627        -61.6151       -0.0122747         147.564
0.554                   -0.52538        -147.892         -57.4725        -62.8421         -57.4764        -62.8614       -0.0123788         147.494
0.555                  -0.535539        -148.522         -57.3773        -64.1009         -57.3815         -64.121       -0.0124837         147.423
0.556                  -0.546299         -149.16         -57.2735        -65.3751         -57.2781        -65.3959       -0.0125895         147.353
0.557                  -0.557721        -149.809         -57.1615        -66.6668         -57.1664        -66.6879       -0.0126962         147.282
0.558                  -0.569873        -150.466         -57.0414        -67.9776         -57.0465        -67.9988       -0.0128039         147.212
0.559                  -0.582829        -151.134         -56.9133        -69.3093         -56.9187        -69.3305       -0.0129126         147.141
0.56                   -0.596671        -151.812         -56.7774        -70.6636          -56.783        -70.6847       -0.0130224          147.07
0.561                  -0.611487        -152.501          -56.634        -72.0424         -56.6398         -72.063       -0.0131334         146.999
0.562                  -0.627375          -153.2         -56.4831        -73.4472          -56.489        -73.4673       -0.0132456         146.928
0.563                  -0.644443         -153.91         -56.3248        -74.8798         -56.3309        -74.8993       -0.0133591         146.856
0.564                  -0.662808        -154.632         -56.1595         -76.342         -56.1657        -76.3608       -0.0134741         146.785
0.565                  -0.682601        -155.366         -55.9872        -77.8356         -55.9935        -77.8535       -0.0135905         146.713
0.566                  -0.703966        -156.111          -55.808        -79.3624         -55.8144        -79.3794       -0.0137086         146.641
0.567                  -0.727058        -156.868         -55.6223        -80.9243         -55.6286        -80.9402       -0.0138284         146.569
0.568                  -0.752053        -157.638           -55.43        -82.5233         -55.4364         -82.538       -0.0139501         146.497
0.569                  -0.779139         -158.42         -55.2315        -84.1612         -55.2378        -84.1748       -0.0140738         146.425
0.57                   -0.808528        -159.214         -55.0268        -85.8402         -55.0332        -85.8526       -0.0141997         146.353
0.571                  -0.840449        -160.021         -54.8164        -87.5624         -54.8226        -87.5735       -0.0143278          146.28
0.572                  -0.875156         -160.84         -54.6002        -89.3299         -54.6064        -89.3398       -0.0144585         146.208
0.573                  -0.912926        -161.671         -54.3787        -91.1451         -54.3848        -91.1537       -0.0145917         146.135
0.574                  -0.954062        -162.514         -54.1521        -93.0102         -54.1581        -93.0176       -0.0147277         146.062
0.575                  -0.998893        -163.367         -53.9207        -94.9277         -53.9265        -94.9337       -0.0148666         145.989
0.576                   -1.04778        -164.231         -53.6848        -96.8998         -53.6905        -96.9046       -0.0150087         145.916
0.577                    -1.1011        -165.104         -53.4449        -98.9291         -53.4504        -98.9326       -0.0151541         145.842
0.578                   -1.15928        -165.984         -53.2013        -101.018         -53.2066         -101.02       -0.0153029         145.769
0.579                   -1.22275         -166.87         -52.9545        -103.169         -52.9596         -103.17       -0.0154553         145.695
0.58                    -1.29197        -167.759          -52.705        -105.384           -52.71        -105.384       -0.0156114         145.621
0.581                   -1.36742        -168.649         -52.4534        -107.667         -52.4582        -107.666       -0.0157713         145.547
0.582                   -1.44957        -169.535         -52.2004        -110.018         -52.2049        -110.016       -0.0159352         145.473
0.583                   -1.53891        -170.412         -51.9465         -112.44         -51.9508        -112.437        -0.016103         145.398
0.584                   -1.63586        -171.277         -51.6926        -114.935         -51.6966        -114.931       -0.0162749         145.324
0.585                   -1.74082        -172.121         -51.4395        -117.504         -51.4433        -117.499       -0.0164509         145.249
0.586                   -1.85408        -172.937          -51.188        -120.148         -51.1915        -120.142        -0.016631         145.174
0.587                   -1.97579        -173.717         -50.9391        -122.868         -50.9423        -122.862       -0.0168151           145.1
0.588                   -2.10592         -174.45         -50.6938        -125.663         -50.6967        -125.657       -0.0170032         145.024
0.589                   -2.24418        -175.126         -50.4531        -128.534         -50.4558        -128.527       -0.0171952         144.949
0.59                    -2.38996        -175.732          -50.218        -131.478         -50.2205         -131.47        -0.017391         144.874
0.591                   -2.54224        -176.256         -49.9898        -134.493         -49.9919        -134.486       -0.0175905         144.798
0.592                   -2.69952        -176.684         -49.7693        -137.576         -49.7713        -137.569       -0.0177935         144.722
0.593                   -2.85978        -177.006         -49.5579        -140.723         -49.5595        -140.716       -0.0179998         144.646
0.594                   -3.02041        -177.211         -49.3563        -143.929         -49.3577        -143.923       -0.0182093          144.57
0.595                   -3.17828        -177.292         -49.1657        -147.188         -49.1669        -147.182       -0.0184219         144.494
0.596                   -3.32979        -177.246         -48.9867        -150.493         -48.9877        -150.487       -0.0186372         144.417
0.597                   -3.47103        -177.076         -48.8203        -153.836         -48.8211         -153.83       -0.0188553         144.341
0.598                   -3.59804        -176.792         -48.6669        -157.208         -48.6675        -157.203       -0.0190758         144.264
0.599                   -3.70708        -176.409         -48.5269          -160.6         -48.5274        -160.596       -0.0192988         144.187
0.6                     -3.79499         -175.95         -48.4006        -164.004          -48.401        -164.001       -0.0195239          144.11
0.601                   -3.85947        -175.441         -48.2881         -167.41         -48.2883        -167.407       -0.0197512         144.033
0.602                   -3.89932        -174.915          -48.189        -170.808         -48.1892        -170.806       -0.0199804         143.955
0.603                   -3.91454        -174.402         -48.1032         -174.19         -48.1033        -174.188       -0.0202115         143.877
0.604                   -3.90626        -173.933         -48.0301        -177.547         -48.0301        -177.545       -0.0204445         143.799
0.605                   -3.87658        -173.532          -47.969          179.13          -47.969          179.13       -0.0206793         143.721
0.606                   -3.82834        -173.223         -47.9191         175.846         -47.9191         175.846       -0.0209158         143.643
0.607                   -3.76478        -173.019         -47.8796         172.608         -47.8795         172.608        -0.021154         143.565
0.608                   -3.68928         -172.93         -47.8495         169.421         -47.8494         169.421        -0.021394         143.486
0.609                   -3.60512         -172.96         -47.8277          166.29         -47.8276         166.289       -0.0216357         143.407
0.61                    -3.51532        -173.109         -47.8132         163.217         -47.8131         163.216       -0.0218791         143.328
0.611                   -3.42253        -173.373         -47.8049         160.205         -47.8049         160.203       -0.0221244         143.249
0.612                   -3.32901        -173.746         -47.8019         157.254         -47.8019         157.253       -0.0223715         143.169
0.613                   -3.23658        -174.223         -47.8031         154.366         -47.8031         154.365       -0.0226205         143.089
0.614                    -3.1467        -174.794         -47.8076         151.541         -47.8076         151.539       -0.0228716         143.009
0.615                   -3.06048        -175.451         -47.8144         148.777         -47.8144         148.775       -0.0231247         142.929
0.616                   -2.97876        -176.187         -47.8228         146.073         -47.8228         146.072         -0.02338         142.849
0.617                   -2.90213        -176.995         -47.8319         143.428          -47.832         143.427       -0.0236375         142.768
0.618                   -2.83099        -177.867         -47.8411          140.84         -47.8412         140.838       -0.0238974         142.687
0.619                    -2.7656        -178.799         -47.8497         138.305         -47.8498         138.304       -0.0241597         142.606
0.62                    -2.70611        -179.783         -47.8572         135.822         -47.8572         135.821       -0.0244246         142.525
0.621                   -2.65258         179.183          -47.863         133.388          -47.863         133.387       -0.0246922         142.443
0.622                   -2.60504         178.105         -47.8666             131         -47.8667         130.999       -0.0249625         142.361
0.623                   -2.56345         176.985         -47.8678         128.655         -47.8679         128.654       -0.0252358         142.279
0.624                   -2.52777         175.827         -47.8661          126.35         -47.8662         126.349       -0.0255122         142.197
0.625                   -2.49794         174.633         -47.8612         124.081         -47.8613         124.081       -0.0257917         142.114
0.626                   -2.47391         173.404          -47.853         121.847          -47.853         121.847       -0.0260744         142.031
0.627                   -2.45562         172.143         -47.8411         119.644         -47.8411         119.644       -0.0263606         141.948
0.628                   -2.44305          170.85         -47.8254         117.469         -47.8255         117.469       -0.0266504         141.865
0.629                   -2.43618         169.527         -47.8058          115.32         -47.8059          115.32       -0.0269439         141.781
0.63                    -2.43499         168.174         -47.7822         113.193         -47.7822         113.193       -0.0272412         141.697
0.631                   -2.43953         166.792         -47.7545         111.086         -47.7545         111.086       -0.0275424         141.613
0.632                   -2.44983         165.381         -47.7225         108.995         -47.7225         108.996       -0.0278478         141.528
0.633                   -2.46597         163.941         -47.6864          106.92         -47.6864          106.92       -0.0281574         141.443
0.634                   -2.48805         162.473         -47.6462         104.856         -47.6461         104.856       -0.0284714         141.358
0.635                   -2.51622         160.975         -47.6017         102.802         -47.6017         102.802       -0.0287899         141.272
0.636                   -2.55062         159.449         -47.5531         100.754         -47.5531         100.754       -0.0291132         141.187
0.637                   -2.59146         157.893         -47.5005         98.7113         -47.5004         98.7115       -0.0294413         141.101
0.638                   -2.63897         156.308         -47.4438         96.6709         -47.4438          96.671       -0.0297744         141.014
0.639                   -2.69341         154.693         -47.3833         94.6305         -47.3833         94.6306       -0.0301126         140.928
0.64                    -2.75509         153.048         -47.3191         92.5881          -47.319         92.5882       -0.0304562         140.841
0.641                   -2.82435         151.372         -47.2512         90.5416         -47.2511         90.5416       -0.0308053         140.753
0.642                   -2.90157         149.666         -47.1798         88.4889         -47.1798         88.4888       -0.0311599         140.666
0.643                    -2.9872         147.928         -47.1052         86.4281         -47.1052          86.428       -0.0315204         140.578
0.644                   -3.08169         146.159         -47.0275         84.3574         -47.0275         84.3572       -0.0318869         140.489
0.645                   -3.18558         144.359         -46.9469          82.275         -46.9469         82.2748       -0.0322594         140.401
0.646                   -3.29944         142.528         -46.8637         80.1792         -46.8637          80.179       -0.0326383         140.312
0.647                   -3.42392         140.666         -46.7781         78.0686         -46.7781         78.0684       -0.0330236         140.222
0.648                    -3.5597         138.772         -46.6904         75.9417         -46.6904         75.9414       -0.0334155         140.133
0.649                   -3.70754         136.849         -46.6009         73.7972         -46.6009         73.7969       -0.0338143         140.043
0.65                    -3.86828         134.896         -46.5099          71.634           -46.51         71.6336         -0.03422         139.952
0.651                   -4.04281         132.914         -46.4177         69.4511         -46.4178         69.4507       -0.0346328         139.862
0.652                   -4.23212         130.905         -46.3247         67.2476         -46.3248         67.2472       -0.0350529          139.77
0.653                   -4.43728         128.871         -46.2312         65.0229         -46.2313         65.0226       -0.0354805         139.679
0.654                   -4.65945         126.814         -46.1376         62.7768         -46.1377         62.7764       -0.0359157         139.587
0.655                    -4.8999         124.736         -46.0443         60.5088         -46.0444         60.5085       -0.0363588         139.495
0.656                   -5.16001         122.642         -45.9517         58.2192         -45.9518          58.219       -0.0368097         139.402
0.657                   -5.44129         120.534         -45.8601         55.9082         -45.8602          55.908       -0.0372688         139.309
0.658                    -5.7454         118.419         -45.7699         53.5764           -45.77         53.5762       -0.0377362         139.215
0.659                   -6.07415         116.301         -45.6816         51.2246         -45.6817         51.2245        -0.038212         139.122
0.66                    -6.42954         114.189         -45.5955         48.8539         -45.5956         48.8539       -0.0386964         139.027
0.661                   -6.81377          112.09         -45.5119         46.4657         -45.5121         46.4658       -0.0391896         138.933
0.662                   -7.22932         110.014         -45.4313         44.0617         -45.4315         44.0619       -0.0396917         138.837
0.663                   -7.67894         107.974          -45.354         41.6438         -45.3542         41.6441       -0.0402029         138.742
0.664                   -8.16573         105.985         -45.2802         39.2143         -45.2803         39.2146       -0.0407234         138.646
0.665                   -8.69322         104.065         -45.2102         36.7754         -45.2103         36.7758       -0.0412532         138.549
0.666                   -9.26545         102.237         -45.1442         34.3298         -45.1444         34.3303       -0.0417927         138.452
0.667                   -9.88706         100.528         -45.0824         31.8804         -45.0826          31.881       -0.0423419         138.355
0.668                   -10.5634         98.9766          -45.025         29.4301         -45.0251         29.4307        -0.042901         138.257
0.669                   -11.3008         97.6289          -44.972         26.9818         -44.9721         26.9824       -0.0434702         138.159
0.67                    -12.1065         96.5484         -44.9234         24.5387         -44.9235         24.5393       -0.0440497          138.06
0.671                   -12.9888         95.8211         -44.8792         22.1039         -44.8793         22.1045       -0.0446397         137.961
0.672                   -13.9568         95.5666         -44.8394         19.6804         -44.8394         19.6811       -0.0452403         137.861
0.673                     -15.02         95.9555         -44.8038         17.2713         -44.8038          17.272       -0.0458518         137.761
0.674                   -16.1858         97.2354         -44.7722         14.8795         -44.7722         14.8802       -0.0464743          137.66
0.675                   -17.4543         99.7688         -44.7444         12.5077         -44.7444         12.5083       -0.0471081         137.559
0.676                    -18.805         104.075         -44.7202         10.1584         -44.7202          10.159       -0.0477535         137.457
0.677                   -20.1692         110.832         -44.6992         7.83408         -44.6992         7.83454       -0.0484105         137.354
0.678                   -21.3843          120.67         -44.6812         5.53669         -44.6811         5.53708       -0.0490796         137.251
0.679                   -22.1745         133.489         -44.6657         3.26813         -44.6657         3.26843       -0.0497609         137.148
0.68                    -22.2803         147.611         -44.6524         1.02998         -44.6524         1.03018       -0.0504548         137.044
0.681                   -21.7064         160.393         -44.6409        -1.17648         -44.6408        -1.17637       -0.0511614         136.939
0.682                   -20.7162         170.208         -44.6308        -3.35021         -44.6307         -3.3502       -0.0518812         136.834
0.683                    -19.582         176.994         -44.6216        -5.49046         -44.6215        -5.49056       -0.0526144         136.728
0.684                   -18.4622        -178.613          -44.613        -7.59675         -44.6129        -7.59694       -0.0533613         136.622
0.685                   -17.4229         -175.94         -44.6045        -9.66884         -44.6044        -9.66912       -0.0541222         136.515
0.686                   -16.4829        -174.477         -44.5958        -11.7067         -44.5957        -11.7071       -0.0548976         136.407
0.687                   -15.6413        -173.867         -44.5864        -13.7107         -44.5863        -13.7111       -0.0556878         136.299
0.688                   -14.8902        -173.869         -44.5759         -15.681         -44.5759        -15.6816       -0.0564932          136.19
0.689                   -14.2196        -174.319         -44.5641        -17.6185         -44.5641        -17.6191       -0.0573141         136.081
0.69                    -13.6202        -175.102         -44.5505        -19.5239         -44.5505        -19.5245       -0.0581511          135.97
0.691                   -13.0833        -176.136         -44.5348         -21.398         -44.5348        -21.3987       -0.0590044         135.859
0.692                   -12.6016        -177.364         -44.5168        -23.2421         -44.5168        -23.2428       -0.0598746         135.748
0.693                   -12.1688        -178.742          -44.496        -25.0573          -44.496         -25.058       -0.0607622         135.635
0.694                   -11.7794         179.761         -44.4723        -26.8448         -44.4723        -26.8455       -0.0616675         135.522
0.695                   -11.4288          178.17         -44.4454        -28.6061         -44.4454        -28.6068       -0.0625912         135.409
0.696                   -11.1131         176.502         -44.4151        -30.3426         -44.4151        -30.3433       -0.0635337         135.294