! TOUCHSTONE file generated by CST MICROWAVE STUDIO
! Date and time: Sat Oct 24 10:49:12 2020
! Project name: Scenario_1_Planar_Body_Tissue_Center.cst
! Parameters = {hfat=3; hmuscle=50; hskin=1.5; hgap=25; Wtissue=700; Ltissue=700; L_HA=400; MT=2.54; Rad_Dielectric=30; Rad_Lower=7.3; Rad_Upper=30; a_HA=580; a_WG=246; b_HA=500; b_WG=121; c_HA=0; c_WG=187; d_feed=85; dx1=952.4; h_feed=15; h_lower=18; h_upper=40}
! Header version: 2018
! Port assignment regex: !\s*Touchstone port\s*([0-9]+)\s*=\s*(CST MWS port|CST DS port)\s*([0-9]+|Zmin|Zmax)\s*\(\"(.*)\"\)(\s*mode\s*([0-9]+))?.*
! Touchstone port assignment:
! Touchstone port 1 = CST MWS port 1 ("")
! Touchstone port 2 = CST MWS port 2 ("")
# GHz S DB R 50
0.5                    -0.203029        -122.251          -61.289          48.629         -61.2891         48.6294      -0.00773499         151.137
0.501                  -0.206126        -122.679         -61.1473         48.0417         -61.1502         48.0432      -0.00780877         151.072
0.502                  -0.209307        -123.108         -61.0007         47.4552         -61.0064         47.4579      -0.00788281         151.007
0.503                  -0.212573        -123.541         -60.8487           46.87         -60.8574          46.874      -0.00795711         150.941
0.504                  -0.215927        -123.975          -60.691         46.2867          -60.703         46.2921      -0.00803166         150.876
0.505                  -0.219369        -124.411         -60.5272         45.7057         -60.5427         45.7127      -0.00810649          150.81
0.506                  -0.222901         -124.85          -60.357         45.1276          -60.376         45.1365      -0.00818159         150.745
0.507                  -0.226525        -125.291         -60.1797         44.5531         -60.2026         44.5641      -0.00825697         150.679
0.508                  -0.230243        -125.735         -59.9949          43.983         -60.0219         43.9963      -0.00833263         150.613
0.509                  -0.234057         -126.18          -59.802          43.418         -59.8334         43.4339       -0.0084086         150.548
0.51                   -0.237968        -126.629         -59.6003         42.8588         -59.6365         42.8779      -0.00848486         150.482
0.511                   -0.24198        -127.079         -59.3891         42.3065         -59.4303         42.3292      -0.00856143         150.416
0.512                  -0.246094        -127.533         -59.1675         41.7619         -59.2142         41.7888      -0.00863832          150.35
0.513                  -0.250313        -127.989         -58.9346         41.2261         -58.9872         41.2579      -0.00871553         150.284
0.514                  -0.254639        -128.447         -58.6893         40.7002         -58.7483         40.7378      -0.00879308         150.217
0.515                  -0.259077        -128.908         -58.4304         40.1853         -58.4964         40.2298      -0.00887096         150.151
0.516                  -0.263628        -129.372         -58.1565         39.6826           -58.23         39.7353       -0.0089492         150.085
0.517                  -0.268296        -129.839         -57.8659         39.1935         -57.9477         39.2558      -0.00902779         150.018
0.518                  -0.273084        -130.308         -57.5567         38.7191         -57.6477         38.7931      -0.00910675         149.952
0.519                  -0.277997        -130.781         -57.2267         38.2609         -57.3278         38.3489      -0.00918608         149.885
0.52                   -0.283038        -131.256         -56.8733           37.82         -56.9857         37.9248       -0.0092658         149.818
0.521                  -0.288211        -131.735         -56.4934         37.3975         -56.6183         37.5228      -0.00934592         149.751
0.522                  -0.293522        -132.216         -56.0832         36.9943         -56.2222         37.1447      -0.00942644         149.685
0.523                  -0.298975        -132.701         -55.6383         36.6109         -55.7933         36.7922      -0.00950738         149.618
0.524                  -0.304575        -133.189          -55.153         36.2471         -55.3263         36.4666      -0.00958875          149.55
0.525                  -0.310328        -133.681         -54.6205         35.9015         -54.8148         36.1689      -0.00967057         149.483
0.526                  -0.316241        -134.176         -54.0321         35.5713          -54.251         35.8992      -0.00975284         149.416
0.527                  -0.322319        -134.674         -53.3767         35.2507         -53.6246         35.6562      -0.00983558         149.349
0.528                   -0.32857        -135.176         -52.6398         34.9295         -52.9223         35.4359       -0.0099188         149.281
0.529                  -0.335001        -135.681         -51.8018         34.5897         -52.1265         35.2303       -0.0100025         149.214
0.53                   -0.341621        -136.191         -50.8356         34.2003          -51.213         35.0238       -0.0100868         149.146
0.531                  -0.348439        -136.704         -49.7023         33.7062         -50.1472         34.7875       -0.0101715         149.078
0.532                  -0.355463        -137.221         -48.3431         33.0038         -48.8778         34.4659       -0.0102568          149.01
0.533                  -0.362704        -137.743         -46.6631         31.8848         -47.3231         33.9474       -0.0103427         148.943
0.534                  -0.370175        -138.268         -44.4956         29.8756         -45.3425         32.9856       -0.0104292         148.874
0.535                  -0.377887        -138.798         -41.5112         25.6709         -42.6615         30.9381       -0.0105162         148.806
0.536                  -0.385862        -139.332         -36.9753         14.2556         -38.6346         25.5559       -0.0106034         148.738
0.537                    -0.3941         -139.87         -30.9007        -33.1845         -31.4188         2.24473       -0.0106838          148.67
0.538                   -0.40255        -140.415          -35.447         -99.186         -31.3077        -94.1869       -0.0107862         148.601
0.539                  -0.411394        -140.963         -40.9188        -115.246         -38.9255        -118.378       -0.0108722         148.533
0.54                   -0.420523        -141.516         -44.5049        -119.928         -43.2789        -123.275        -0.010962         148.464
0.541                  -0.429987        -142.074          -47.103        -121.336         -46.2432        -124.405       -0.0110531         148.395
0.542                   -0.43981        -142.638         -49.1183        -121.329         -48.4741         -124.12       -0.0111451         148.326
0.543                  -0.450015        -143.207         -50.7448        -120.545         -50.2451          -123.1       -0.0112379         148.257
0.544                  -0.460628        -143.781         -52.0873        -119.272         -51.6928        -121.622       -0.0113317         148.188
0.545                  -0.471676        -144.362         -53.2074        -117.667         -52.8942        -119.833       -0.0114263         148.119
0.546                   -0.48319        -144.948         -54.1444        -115.835         -53.8962         -117.83        -0.011522          148.05
0.547                  -0.495204        -145.541         -54.9246        -113.857         -54.7296        -115.688       -0.0116186          147.98
0.548                  -0.507756        -146.139         -55.5674        -111.804         -55.4164        -113.472       -0.0117163         147.911
0.549                  -0.520886        -146.745         -56.0879        -109.735         -55.9732        -111.244       -0.0118152         147.841
0.55                   -0.534639        -147.357         -56.4987        -107.706         -56.4139        -109.059       -0.0119151         147.771
0.551                  -0.549065        -147.976         -56.8112        -105.765         -56.7506        -106.968       -0.0120164         147.701
0.552                  -0.564218        -148.602         -57.0358        -103.955         -56.9944        -105.013       -0.0121189         147.631
0.553                   -0.58016        -149.236         -57.1823        -102.308          -57.156        -103.229       -0.0122227         147.561
0.554                  -0.596959        -149.877         -57.2599        -100.849          -57.245        -101.644        -0.012328         147.491
0.555                  -0.614688        -150.526         -57.2771        -99.5967         -57.2708        -100.276       -0.0124349          147.42
0.556                  -0.633431        -151.184         -57.2419         -98.562         -57.2415         -99.137       -0.0125433          147.35
0.557                  -0.653281         -151.85         -57.1611        -97.7505         -57.1648         -98.232       -0.0126534         147.279
0.558                  -0.674341        -152.524         -57.0411        -97.1632         -57.0473        -97.5621       -0.0127652         147.208
0.559                  -0.696726        -153.207         -56.8874        -96.7979         -56.8949        -97.1243        -0.012879         147.138
0.56                   -0.720564          -153.9         -56.7047        -96.6502         -56.7127        -96.9136       -0.0129947         147.066
0.561                     -0.746        -154.601         -56.4971        -96.7142         -56.5049         -96.923       -0.0131125         146.995
0.562                  -0.773194        -155.312         -56.2683        -96.9831         -56.2755        -97.1452       -0.0132324         146.924
0.563                  -0.802326        -156.033         -56.0212        -97.4502         -56.0274        -97.5723       -0.0133547         146.853
0.564                  -0.833598        -156.763         -55.7584        -98.1086         -55.7635        -98.1968       -0.0134793         146.781
0.565                  -0.867235        -157.503         -55.4823         -98.952         -55.4862        -99.0116       -0.0136064         146.709
0.566                   -0.90349        -158.252         -55.1949        -99.9747         -55.1974         -100.01       -0.0137362         146.637
0.567                  -0.942646         -159.01         -54.8978        -101.171          -54.899        -101.187       -0.0138687         146.565
0.568                  -0.985018        -159.777         -54.5927        -102.538         -54.5927        -102.537        -0.014004         146.493
0.569                   -1.03095        -160.552         -54.2812         -104.07         -54.2799        -104.056       -0.0141423         146.421
0.57                    -1.08085        -161.335         -53.9646        -105.764         -53.9621         -105.74       -0.0142836         146.348
0.571                   -1.13512        -162.122         -53.6443        -107.619         -53.6408        -107.587        -0.014428         146.276
0.572                   -1.19424        -162.914         -53.3218         -109.63         -53.3173        -109.593       -0.0145756         146.203
0.573                   -1.25871        -163.707         -52.9984        -111.798          -52.993        -111.756       -0.0147265          146.13
0.574                   -1.32907        -164.499         -52.6756        -114.118         -52.6695        -114.074       -0.0148807         146.057
0.575                   -1.40587        -165.284         -52.3549         -116.59         -52.3482        -116.544       -0.0150382         145.984
0.576                   -1.48967        -166.059          -52.038         -119.21         -52.0308        -119.165       -0.0151991         145.911
0.577                   -1.58101        -166.817         -51.7265        -121.977         -51.7189        -121.932       -0.0153634         145.837
0.578                   -1.68034        -167.548         -51.4222        -124.885         -51.4142        -124.842        -0.015531         145.764
0.579                   -1.78801        -168.245         -51.1269         -127.93         -51.1187         -127.89       -0.0157019          145.69
0.58                    -1.90413        -168.895         -50.8424        -131.105         -50.8341        -131.069       -0.0158761         145.616
0.581                    -2.0285        -169.485         -50.5705        -134.404         -50.5623        -134.371       -0.0160535         145.542
0.582                   -2.16046        -169.998         -50.3131        -137.816          -50.305        -137.787        -0.016234         145.468
0.583                   -2.29875        -170.419         -50.0718        -141.332          -50.064        -141.307       -0.0164174         145.394
0.584                   -2.44131        -170.731         -49.8481        -144.938         -49.8406        -144.916       -0.0166037         145.319
0.585                    -2.5852        -170.918         -49.6433         -148.62         -49.6363        -148.602       -0.0167926         145.245
0.586                    -2.7265        -170.968         -49.4586        -152.362          -49.452        -152.348       -0.0169842          145.17
0.587                   -2.86039        -170.875         -49.2944        -156.149         -49.2885        -156.138       -0.0171781         145.095
0.588                    -2.9814        -170.642         -49.1513        -159.964          -49.146        -159.956       -0.0173743          145.02
0.589                   -3.08391        -170.284         -49.0292        -163.789         -49.0245        -163.783       -0.0175726         144.945
0.59                     -3.1628        -169.827         -48.9276        -167.607         -48.9236        -167.604       -0.0177728         144.869
0.591                   -3.21418        -169.308         -48.8459        -171.404         -48.8426        -171.403       -0.0179748         144.794
0.592                   -3.23602        -168.772         -48.7831        -175.165         -48.7803        -175.164       -0.0181785         144.718
0.593                   -3.22849        -168.266         -48.7377        -178.877         -48.7356        -178.877       -0.0183838         144.642
0.594                   -3.19386        -167.833         -48.7083         177.471         -48.7068         177.471       -0.0185905         144.566
0.595                   -3.13611        -167.508         -48.6933         173.888         -48.6923         173.887       -0.0187986          144.49
0.596                   -3.06025        -167.316          -48.691         170.381         -48.6904         170.381       -0.0190079         144.414
0.597                   -2.97162         -167.27         -48.6995         166.955         -48.6994         166.955       -0.0192185         144.337
0.598                   -2.87529        -167.371         -48.7173         163.614         -48.7175         163.614       -0.0194303          144.26
0.599                   -2.77572        -167.615         -48.7426         160.359         -48.7431          160.36       -0.0196433         144.183
0.6                     -2.67651        -167.992         -48.7738         157.191         -48.7747         157.193       -0.0198574         144.106
0.601                    -2.5804        -168.487         -48.8096         154.109         -48.8107         154.112       -0.0200728         144.029
0.602                   -2.48936        -169.088         -48.8486         151.112         -48.8499         151.115       -0.0202894         143.951
0.603                   -2.40468        -169.778         -48.8895         148.197          -48.891         148.201       -0.0205073         143.874
0.604                    -2.3271        -170.546         -48.9314         145.361          -48.933         145.365       -0.0207265         143.796
0.605                     -2.257         -171.38         -48.9732         142.601         -48.9749         142.606       -0.0209471         143.718
0.606                   -2.19445        -172.269         -49.0141         139.913         -49.0159         139.918       -0.0211692         143.639
0.607                   -2.13935        -173.205         -49.0533         137.294         -49.0552         137.299        -0.021393         143.561
0.608                   -2.09147        -174.182         -49.0904         134.738         -49.0922         134.744       -0.0216184         143.482
0.609                   -2.05051        -175.193         -49.1246         132.243         -49.1264         132.249       -0.0218455         143.403
0.61                    -2.01613        -176.234         -49.1555         129.804         -49.1574          129.81       -0.0220747         143.324
0.611                     -1.988        -177.301         -49.1828         127.417         -49.1847         127.423       -0.0223058         143.245
0.612                   -1.96579        -178.392         -49.2062         125.078          -49.208         125.084        -0.022539         143.165
0.613                    -1.9492        -179.504         -49.2253         122.784          -49.227         122.791       -0.0227746         143.085
0.614                   -1.93797         179.364           -49.24         120.532         -49.2417         120.538       -0.0230125         143.005
0.615                   -1.93184         178.213           -49.25         118.316         -49.2517         118.322        -0.023253         142.925
0.616                   -1.93063         177.045         -49.2553         116.135         -49.2569         116.141       -0.0234961         142.844
0.617                   -1.93416         175.859         -49.2558         113.984         -49.2573          113.99        -0.023742         142.764
0.618                   -1.94231         174.655         -49.2514         111.862         -49.2528         111.867       -0.0239908         142.683
0.619                   -1.95498         173.435          -49.242         109.764         -49.2434         109.769       -0.0242426         142.601
0.62                    -1.97211         172.196         -49.2277         107.688          -49.229         107.693       -0.0244976          142.52
0.621                   -1.99368         170.941         -49.2084         105.631         -49.2096         105.635        -0.024756         142.438
0.622                    -2.0197         169.667         -49.1841          103.59         -49.1853         103.594       -0.0250178         142.356
0.623                    -2.0502         168.375         -49.1549         101.563         -49.1561         101.567       -0.0252831         142.274
0.624                   -2.08526         167.064         -49.1209          99.548          -49.122         99.5517       -0.0255522         142.191
0.625                   -2.12498         165.733         -49.0822         97.5416         -49.0831         97.5449       -0.0258251         142.108
0.626                   -2.16949         164.383         -49.0387         95.5417         -49.0396         95.5447       -0.0261019         142.025
0.627                   -2.21896         163.012         -48.9906         93.5462         -48.9914         93.5489       -0.0263829         141.942
0.628                   -2.27358         161.621          -48.938         91.5529         -48.9388         91.5553       -0.0266681         141.858
0.629                   -2.33357         160.209         -48.8811         89.5596         -48.8818         89.5617       -0.0269577         141.775
0.63                    -2.39918         158.775           -48.82         87.5643         -48.8206         87.5661       -0.0272518          141.69
0.631                   -2.47068         157.321         -48.7547         85.5649         -48.7554         85.5664       -0.0275505         141.606
0.632                   -2.54838         155.845         -48.6856         83.5596         -48.6862         83.5608       -0.0278539         141.521
0.633                    -2.6326          154.35         -48.6128         81.5465         -48.6133         81.5475       -0.0281623         141.436
0.634                   -2.72369         152.836         -48.5364         79.5237         -48.5369         79.5245       -0.0284757         141.351
0.635                   -2.82202         151.308         -48.4568         77.4897         -48.4572         77.4902       -0.0287942         141.265
0.636                   -2.92804         149.769          -48.374         75.4426         -48.3744         75.4429       -0.0291181         141.179
0.637                   -3.04249         148.231         -48.2885         73.3811         -48.2888         73.3811       -0.0294474         141.093
0.638                   -3.16706         146.711         -48.2003         71.3036         -48.2007         71.3034       -0.0297822         141.006
0.639                   -3.30691         145.239         -48.1099         69.2088         -48.1102         69.2085       -0.0301227          140.92
0.64                    -3.47698         143.826         -48.0175         67.0956         -48.0178         67.0951        -0.030469         140.832
0.641                   -3.69799         142.311         -47.9235         64.9629         -47.9237         64.9623       -0.0308213         140.745
0.642                   -3.93689         140.416         -47.8281         62.8094         -47.8283         62.8086       -0.0311797         140.657
0.643                    -4.1455         138.375         -47.7317         60.6344         -47.7319         60.6335       -0.0315442         140.569
0.644                   -4.34511         136.435         -47.6347         58.4375         -47.6348         58.4365       -0.0319151          140.48
0.645                   -4.55735         134.589         -47.5374         56.2185         -47.5375         56.2174       -0.0322925         140.392
0.646                   -4.78898         132.797         -47.4402         53.9771         -47.4403         53.9759       -0.0326765         140.302
0.647                   -5.04193         131.038         -47.3435         51.7134         -47.3435         51.7122       -0.0330672         140.213
0.648                   -5.31725          129.31         -47.2477         49.4278         -47.2477         49.4266       -0.0334648         140.123
0.649                   -5.61601         127.616         -47.1531         47.1209         -47.1532         47.1196       -0.0338694         140.033
0.65                     -5.9394         125.964         -47.0603         44.7936         -47.0603         44.7922        -0.034281         139.942
0.651                    -6.2888         124.367         -46.9695         42.4469         -46.9695         42.4456       -0.0346999         139.851
0.652                   -6.66568         122.839         -46.8811         40.0824         -46.8812          40.081       -0.0351262          139.76
0.653                   -7.07156         121.402         -46.7955         37.7018         -46.7955         37.7004       -0.0355599         139.668
0.654                   -7.50798         120.078          -46.713          35.307          -46.713         35.3056       -0.0360012         139.576
0.655                   -7.97636         118.894         -46.6338         32.9002         -46.6338         32.8989       -0.0364502         139.484
0.656                   -8.47796         117.886         -46.5582          30.484         -46.5582         30.4827       -0.0369071         139.391
0.657                   -9.01363         117.093         -46.4864          28.061         -46.4864         28.0597        -0.037372         139.298
0.658                   -9.58363         116.564         -46.4186          25.634         -46.4186         25.6328       -0.0378449         139.204
0.659                   -10.1872         116.358         -46.3549          23.206         -46.3548         23.2048       -0.0383261          139.11
0.66                    -10.8219         116.541         -46.2953         20.7801         -46.2952         20.7789       -0.0388156         139.015
0.661                    -11.483         117.194         -46.2398         18.3593         -46.2398         18.3581       -0.0393136          138.92
0.662                   -12.1621         118.405         -46.1885         15.9466         -46.1884         15.9456       -0.0398202         138.825
0.663                   -12.8457         120.267         -46.1411         13.5453         -46.1411         13.5443       -0.0403355         138.729
0.664                   -13.5137         122.865         -46.0976         11.1581         -46.0975         11.1571       -0.0408597         138.633
0.665                    -14.138         126.255         -46.0577         8.78783         -46.0576         8.78698        -0.041393         138.536
0.666                   -14.6832         130.434         -46.0212         6.43719         -46.0211         6.43641       -0.0419355         138.439
0.667                   -15.1105         135.304         -45.9877         4.10852         -45.9877         4.10783       -0.0424874         138.342
0.668                   -15.3852         140.651         -45.9571         1.80401          -45.957         1.80339       -0.0430488         138.244
0.669                   -15.4875         146.164         -45.9288       -0.474471         -45.9287       -0.475008       -0.0436199         138.145
0.67                    -15.4187         151.499         -45.9026         -2.7253         -45.9025        -2.72576       -0.0442009         138.046
0.671                   -15.2012         156.357          -45.878        -4.94716         -45.8779        -4.94753        -0.044792         137.947
0.672                     -14.87         160.543         -45.8546        -7.13901         -45.8545        -7.13931       -0.0453935         137.847
0.673                    -14.463         163.974          -45.832        -9.30012         -45.8319        -9.30035       -0.0460055         137.746
0.674                   -14.0138         166.657         -45.8097          -11.43         -45.8097        -11.4302       -0.0466283         137.645
0.675                   -13.5483         168.652         -45.7874        -13.5286         -45.7874        -13.5287       -0.0472621         137.543
0.676                   -13.0847         170.042         -45.7647        -15.5958         -45.7647        -15.5959       -0.0479072         137.441
0.677                    -12.635         170.914         -45.7411        -17.6321         -45.7411        -17.6321       -0.0485639         137.339
0.678                   -12.2065         171.352         -45.7163         -19.638         -45.7163        -19.6379       -0.0492324         137.235
0.679                    -11.803         171.427         -45.6899        -21.6142         -45.6898         -21.614       -0.0499131         137.132
0.68                    -11.4264         171.199         -45.6615        -23.5616         -45.6615        -23.5614       -0.0506063         137.027
0.681                   -11.0771         170.721         -45.6309        -25.4814         -45.6308        -25.4812       -0.0513123         136.922
0.682                   -10.7547         170.032         -45.5976        -27.3748         -45.5976        -27.3745       -0.0520315         136.817
0.683                   -10.4582         169.167         -45.5615        -29.2431         -45.5615        -29.2428       -0.0527642         136.711
0.684                   -10.1866         168.155         -45.5223        -31.0878         -45.5222        -31.0875       -0.0535108         136.604
0.685                   -9.93835         167.016         -45.4797        -32.9105         -45.4796        -32.9102       -0.0542716         136.497
0.686                   -9.71231          165.77         -45.4335        -34.7128         -45.4334        -34.7124       -0.0550472         136.389
0.687                   -9.50714         164.432         -45.3836        -36.4963         -45.3835        -36.4959       -0.0558378          136.28
0.688                   -9.32162         163.013         -45.3297        -38.2627         -45.3296        -38.2624        -0.056644         136.171
0.689                    -9.1546         161.524         -45.2717        -40.0139         -45.2716        -40.0135       -0.0574662         136.061
0.69                    -9.00503         159.972         -45.2094        -41.7515         -45.2093        -41.7512       -0.0583047          135.95
0.691                   -8.87194         158.364         -45.1429        -43.4774         -45.1428        -43.4771       -0.0591602         135.839
0.692                   -8.75448         156.705         -45.0719        -45.1934         -45.0718        -45.1931       -0.0600331         135.727
0.693                   -8.65188         154.999         -44.9964        -46.9012         -44.9963         -46.901       -0.0609238         135.614
0.694                   -8.56343         153.249         -44.9164        -48.6026         -44.9162        -48.6024        -0.061833           135.5
0.695                   -8.48855         151.458         -44.8317        -50.2994         -44.8316        -50.2993       -0.0627611         135.386
0.696                   -8.42671         149.628         -44.7424        -51.9934         -44.7423        -51.9933       -0.0637086         135.271