! TOUCHSTONE file generated by CST MICROWAVE STUDIO
! Date and time: Sat Oct 24 10:49:34 2020
! Project name: Scenario_1_Planar_Body_Tissue_Center.cst
! Parameters = {hfat=3; hmuscle=50; hskin=1.5; hgap=25; Wtissue=700; Ltissue=700; L_HA=400; MT=2.54; Rad_Dielectric=30; Rad_Lower=7.3; Rad_Upper=30; a_HA=580; a_WG=246; b_HA=500; b_WG=121; c_HA=0; c_WG=187; d_feed=85; dx1=1004.36; h_feed=15; h_lower=18; h_upper=40}
! Header version: 2018
! Port assignment regex: !\s*Touchstone port\s*([0-9]+)\s*=\s*(CST MWS port|CST DS port)\s*([0-9]+|Zmin|Zmax)\s*\(\"(.*)\"\)(\s*mode\s*([0-9]+))?.*
! Touchstone port assignment:
! Touchstone port 1 = CST MWS port 1 ("")
! Touchstone port 2 = CST MWS port 2 ("")
# GHz S DB R 50
0.5                    -0.204739        -121.705         -62.0614         5.68825         -62.0606         5.69112      -0.00772723         151.143
0.501                  -0.206058        -122.123          -61.964           3.341         -61.9658          3.3564      -0.00779491         151.078
0.502                  -0.207416        -122.543         -61.8706        0.978504         -61.8748         1.00708      -0.00786291         151.013
0.503                  -0.208817        -122.966         -61.7815        -1.39616         -61.7877         -1.3539      -0.00793123         150.947
0.504                  -0.210264        -123.393         -61.6966        -3.77979         -61.7047        -3.72348      -0.00799989         150.882
0.505                  -0.211763        -123.823          -61.616        -6.16907         -61.6257         -6.0985      -0.00806889         150.816
0.506                  -0.213316        -124.255         -61.5397         -8.5606         -61.5508        -8.47572      -0.00813823         150.751
0.507                   -0.21493        -124.691         -61.4676         -10.951         -61.4797        -10.8519      -0.00820792         150.685
0.508                  -0.216609        -125.131         -61.3996        -13.3367         -61.4125        -13.2237      -0.00827797          150.62
0.509                  -0.218358        -125.574         -61.3354        -15.7144         -61.3489        -15.5879      -0.00834838         150.554
0.51                   -0.220184         -126.02         -61.2749        -18.0809         -61.2887        -17.9415      -0.00841917         150.488
0.511                  -0.222092         -126.47         -61.2178        -20.4329         -61.2317        -20.2813      -0.00849033         150.422
0.512                  -0.224089        -126.924         -61.1638        -22.7674         -61.1775        -22.6046      -0.00856188         150.356
0.513                  -0.226182        -127.381         -61.1125        -25.0816         -61.1259        -24.9085      -0.00863383          150.29
0.514                   -0.22838        -127.842         -61.0635         -27.373         -61.0764        -27.1907      -0.00870618         150.224
0.515                  -0.230689        -128.307         -61.0164        -29.6391         -61.0286        -29.4488      -0.00877895         150.157
0.516                   -0.23312        -128.776         -60.9707        -31.8779         -60.9821        -31.6808      -0.00885213         150.091
0.517                  -0.235681        -129.249          -60.926        -34.0877         -60.9364        -33.8851      -0.00892576         150.024
0.518                  -0.238384        -129.727         -60.8817        -36.2669         -60.8911        -36.0601      -0.00899982         149.958
0.519                  -0.241238        -130.208         -60.8374        -38.4144         -60.8457        -38.2047      -0.00907435         149.891
0.52                   -0.244256        -130.694         -60.7925        -40.5293         -60.7996         -40.318      -0.00914935         149.825
0.521                  -0.247452        -131.185         -60.7465        -42.6109         -60.7524        -42.3994      -0.00922483         149.758
0.522                  -0.250839         -131.68         -60.6989        -44.6591         -60.7036        -44.4485      -0.00930082         149.691
0.523                  -0.254433         -132.18         -60.6491        -46.6737         -60.6526        -46.4652      -0.00937733         149.624
0.524                   -0.25825        -132.685         -60.5967        -48.6551          -60.599        -48.4498      -0.00945438         149.557
0.525                  -0.262309        -133.195         -60.5411        -50.6038         -60.5422        -50.4028      -0.00953198          149.49
0.526                  -0.266629         -133.71         -60.4818        -52.5206         -60.4818        -52.3249      -0.00961017         149.422
0.527                  -0.271232        -134.231         -60.4183        -54.4065         -60.4173        -54.2169      -0.00968896         149.355
0.528                  -0.276142        -134.757         -60.3503        -56.2628         -60.3483        -56.0801      -0.00976839         149.288
0.529                  -0.281383        -135.288         -60.2772        -58.0909         -60.2743        -57.9158      -0.00984849          149.22
0.53                   -0.286985        -135.826         -60.1986        -59.8926          -60.195        -59.7257      -0.00992928         149.152
0.531                  -0.292979        -136.369         -60.1141        -61.6697         -60.1098        -61.5115       -0.0100108         149.085
0.532                  -0.299397        -136.919         -60.0233        -63.4243         -60.0184        -63.2751       -0.0100931         149.017
0.533                  -0.306278        -137.474         -59.9259        -65.1585         -59.9205        -65.0187       -0.0101762         148.949
0.534                  -0.313663        -138.037         -59.8215        -66.8748         -59.8157        -66.7445       -0.0102602         148.881
0.535                  -0.321596        -138.606         -59.7098        -68.5757         -59.7037        -68.4551       -0.0103452         148.813
0.536                  -0.330129        -139.182         -59.5905         -70.264         -59.5842        -70.1531       -0.0104311         148.744
0.537                  -0.339314        -139.764         -59.4633        -71.9425         -59.4569        -71.8413        -0.010518         148.676
0.538                  -0.349215        -140.355         -59.3279        -73.6142         -59.3215        -73.5225       -0.0106061         148.607
0.539                  -0.359897        -140.952         -59.1841        -75.2823         -59.1778           -75.2       -0.0106954         148.539
0.54                   -0.371436        -141.558         -59.0317        -76.9501         -59.0256        -76.8769       -0.0107859          148.47
0.541                  -0.383915        -142.171         -58.8705         -78.621         -58.8646        -78.5567       -0.0108779         148.401
0.542                  -0.397425        -142.792         -58.7003        -80.2988         -58.6948        -80.2429       -0.0109713         148.333
0.543                  -0.412068        -143.421         -58.5211        -81.9873         -58.5159        -81.9394       -0.0110663         148.264
0.544                  -0.427958        -144.059         -58.3326        -83.6903         -58.3279        -83.6501        -0.011163         148.194
0.545                  -0.445221        -144.705         -58.1348        -85.4122         -58.1306         -85.379       -0.0112615         148.125
0.546                  -0.463995        -145.359         -57.9276        -87.1572         -57.9239        -87.1306       -0.0113619         148.056
0.547                  -0.484437        -146.022          -57.711        -88.9299         -57.7079        -88.9094       -0.0114645         147.986
0.548                  -0.506718        -146.693         -57.4851        -90.7351         -57.4826        -90.7201       -0.0115692         147.917
0.549                  -0.531029        -147.373         -57.2498        -92.5779          -57.248        -92.5677       -0.0116762         147.847
0.55                   -0.557579         -148.06         -57.0053        -94.4634         -57.0041        -94.4576       -0.0117857         147.777
0.551                  -0.586601        -148.755         -56.7518        -96.3972         -56.7512        -96.3951       -0.0118979         147.707
0.552                  -0.618347        -149.458         -56.4894        -98.3851         -56.4895        -98.3861       -0.0120127         147.637
0.553                  -0.653093        -150.166         -56.2184        -100.433         -56.2192        -100.437       -0.0121304         147.567
0.554                  -0.691139        -150.879         -55.9393        -102.547         -55.9407        -102.553        -0.012251         147.497
0.555                  -0.732802        -151.596         -55.6524        -104.734         -55.6544        -104.741       -0.0123746         147.426
0.556                  -0.778419        -152.315         -55.3584        -107.001          -55.361        -107.009       -0.0125013         147.356
0.557                  -0.828336        -153.034         -55.0579        -109.354          -55.061        -109.362       -0.0126311         147.285
0.558                  -0.882902        -153.749         -54.7518          -111.8         -54.7554        -111.808        -0.012764         147.214
0.559                  -0.942451        -154.456          -54.441        -114.347          -54.445        -114.355          -0.0129         147.143
0.56                    -1.00728        -155.153         -54.1268        -117.001         -54.1312        -117.008        -0.013039         147.072
0.561                   -1.07764        -155.832         -53.8104        -119.769         -53.8151        -119.774        -0.013181         147.001
0.562                   -1.15367        -156.488         -53.4934        -122.657         -53.4983        -122.661       -0.0133259          146.93
0.563                   -1.23536        -157.114         -53.1777         -125.67         -53.1828        -125.672       -0.0134734         146.859
0.564                    -1.3225        -157.701         -52.8651        -128.813         -52.8703        -128.812       -0.0136234         146.787
0.565                   -1.41463        -158.241         -52.5581        -132.087         -52.5633        -132.084       -0.0137758         146.716
0.566                   -1.51094        -158.723         -52.2589        -135.495          -52.264        -135.489       -0.0139303         146.644
0.567                   -1.61022        -159.139         -51.9702        -139.034         -51.9751        -139.026       -0.0140867         146.572
0.568                   -1.71081        -159.481         -51.6947          -142.7         -51.6994        -142.691       -0.0142448           146.5
0.569                   -1.81062        -159.742          -51.435        -146.486         -51.4395        -146.475       -0.0144044         146.428
0.57                    -1.90712        -159.918          -51.194        -150.383          -51.198         -150.37       -0.0145653         146.356
0.571                   -1.99749         -160.01         -50.9739        -154.375         -50.9776        -154.362       -0.0147272         146.283
0.572                   -2.07878        -160.023         -50.7771        -158.446         -50.7803        -158.432         -0.01489         146.211
0.573                   -2.14821        -159.969         -50.6051        -162.577         -50.6079        -162.562       -0.0150537         146.138
0.574                   -2.20338        -159.862         -50.4593        -166.745         -50.4616        -166.731       -0.0152179         146.066
0.575                   -2.24259        -159.725         -50.3402        -170.927         -50.3421        -170.913       -0.0153827         145.993
0.576                   -2.26502        -159.579         -50.2478        -175.099         -50.2493        -175.087        -0.015548          145.92
0.577                   -2.27079        -159.447         -50.1813         -179.24         -50.1825        -179.229       -0.0157136         145.847
0.578                   -2.26091        -159.352         -50.1396         176.673         -50.1404         176.682       -0.0158797         145.773
0.579                   -2.23716        -159.311         -50.1208         172.658         -50.1214         172.665       -0.0160462           145.7
0.58                    -2.20179        -159.339         -50.1228         168.732         -50.1232         168.737        -0.016213         145.626
0.581                    -2.1573        -159.445         -50.1432         164.906         -50.1434          164.91       -0.0163803         145.553
0.582                   -2.10622        -159.633         -50.1794         161.192         -50.1796         161.193       -0.0165481         145.479
0.583                    -2.0509        -159.904         -50.2289         157.594         -50.2289         157.594       -0.0167165         145.405
0.584                   -1.99344        -160.257          -50.289         154.117          -50.289         154.115       -0.0168855          145.33
0.585                   -1.93558        -160.686         -50.3573         150.761         -50.3574         150.758       -0.0170552         145.256
0.586                   -1.87875        -161.186         -50.4317         147.525         -50.4318         147.521       -0.0172257         145.182
0.587                   -1.82402        -161.751         -50.5102         144.406         -50.5103         144.402       -0.0173971         145.107
0.588                   -1.77221        -162.375         -50.5907           141.4          -50.591         141.395       -0.0175694         145.032
0.589                   -1.72389        -163.051         -50.6719         138.503         -50.6722         138.497       -0.0177429         144.957
0.59                    -1.67944        -163.775         -50.7523         135.707         -50.7527         135.701       -0.0179175         144.882
0.591                   -1.63909        -164.539         -50.8308         133.008         -50.8312         133.002       -0.0180934         144.806
0.592                   -1.60296        -165.342         -50.9062         130.398         -50.9067         130.392       -0.0182707         144.731
0.593                   -1.57108        -166.177         -50.9779         127.872         -50.9784         127.866       -0.0184495         144.655
0.594                   -1.54345        -167.043         -51.0451         125.422         -51.0457         125.417       -0.0186298         144.579
0.595                   -1.52002        -167.936         -51.1073         123.044         -51.1079         123.039       -0.0188118         144.503
0.596                   -1.50071        -168.853         -51.1639         120.731         -51.1645         120.725       -0.0189956         144.427
0.597                   -1.48544        -169.794         -51.2147         118.476         -51.2154         118.472       -0.0191812          144.35
0.598                   -1.47414        -170.756         -51.2594         116.276           -51.26         116.272       -0.0193688         144.274
0.599                   -1.46674        -171.739         -51.2978         114.125         -51.2984         114.121       -0.0195585         144.197
0.6                     -1.46316         -172.74         -51.3296         112.017         -51.3302         112.013       -0.0197502          144.12
0.601                   -1.46337         -173.76         -51.3549         109.949         -51.3555         109.946       -0.0199442         144.042
0.602                   -1.46733        -174.798         -51.3735         107.915         -51.3741         107.913       -0.0201405         143.965
0.603                   -1.47502        -175.854         -51.3855         105.913         -51.3861         105.911       -0.0203391         143.887
0.604                   -1.48645        -176.926         -51.3908         103.937         -51.3913         103.936       -0.0205403         143.809
0.605                   -1.50165        -178.016         -51.3895         101.985           -51.39         101.984       -0.0207439         143.731
0.606                   -1.52066        -179.123         -51.3816         100.053          -51.382         100.052       -0.0209502         143.653
0.607                   -1.54355         179.754         -51.3672         98.1376         -51.3676         98.1371       -0.0211593         143.575
0.608                    -1.5704         178.613         -51.3464         96.2356         -51.3467         96.2354       -0.0213711         143.496
0.609                   -1.60134         177.455         -51.3193         94.3443         -51.3196         94.3443       -0.0215858         143.417
0.61                    -1.63649          176.28         -51.2859         92.4606         -51.2862         92.4608       -0.0218035         143.338
0.611                   -1.67602         175.088         -51.2466          90.582         -51.2468         90.5824       -0.0220242         143.259
0.612                   -1.72012         173.878         -51.2012         88.7058         -51.2014         88.7064       -0.0222481         143.179
0.613                   -1.76899         172.651         -51.1502         86.8296         -51.1503         86.8304       -0.0224751         143.099
0.614                   -1.82287         171.406         -51.0935          84.951         -51.0935         84.9518       -0.0227055         143.019
0.615                   -1.88204         170.145         -51.0313         83.0677         -51.0314         83.0685       -0.0229392         142.939
0.616                   -1.94679         168.866          -50.964         81.1774          -50.964         81.1783       -0.0231764         142.858
0.617                   -2.01745          167.57         -50.8915         79.2781         -50.8915          79.279       -0.0234172         142.778
0.618                   -2.09438         166.258         -50.8143         77.3677         -50.8142         77.3685       -0.0236616         142.697
0.619                   -2.17797         164.931         -50.7324         75.4442         -50.7323          75.445       -0.0239098         142.616
0.62                    -2.26867         163.588         -50.6462         73.5057         -50.6461         73.5065       -0.0241617         142.534
0.621                   -2.36692         162.232         -50.5558         71.5505         -50.5557         71.5512       -0.0244176         142.452
0.622                   -2.47324         160.862         -50.4616         69.5768         -50.4615         69.5774       -0.0246775         142.371
0.623                   -2.58816         159.482         -50.3639         67.5831         -50.3638         67.5837       -0.0249415         142.288
0.624                   -2.71225         158.093         -50.2629         65.5679         -50.2627         65.5683       -0.0252098         142.206
0.625                   -2.84613         156.698         -50.1589         63.5298         -50.1588         63.5301       -0.0254823         142.123
0.626                   -2.99044           155.3         -50.0524         61.4675         -50.0522         61.4678       -0.0257592          142.04
0.627                   -3.14585         153.902         -49.9435           59.38         -49.9434         59.3802       -0.0260407         141.957
0.628                   -3.31307         152.508         -49.8328         57.2663         -49.8327         57.2665       -0.0263268         141.873
0.629                   -3.49282         151.125         -49.7206         55.1258         -49.7205         55.1258       -0.0266175          141.79
0.63                    -3.68582         149.758         -49.6073         52.9578         -49.6072         52.9578       -0.0269131         141.706
0.631                    -3.8928         148.414         -49.4932         50.7619         -49.4932         50.7619       -0.0272137         141.621
0.632                   -4.11447         147.101         -49.3789         48.5382         -49.3789         48.5382       -0.0275192         141.537
0.633                   -4.35149          145.83         -49.2646         46.2867         -49.2647         46.2867       -0.0278299         141.452
0.634                   -4.60445         144.611          -49.151         44.0078          -49.151         44.0079       -0.0281459         141.367
0.635                   -4.87385         143.457         -49.0382         41.7022         -49.0383         41.7023       -0.0284671         141.281
0.636                      -5.16         142.383         -48.9269         39.3708          -48.927          39.371       -0.0287939         141.195
0.637                   -5.46303         141.405         -48.8174         37.0148         -48.8175         37.0151       -0.0291262         141.109
0.638                   -5.78277         140.541           -48.71         34.6358         -48.7101         34.6362       -0.0294641         141.023
0.639                   -6.11865         139.813         -48.6051         32.2355         -48.6053          32.236       -0.0298078         140.936
0.64                    -6.46963         139.242         -48.5032         29.8161         -48.5034         29.8167       -0.0301573         140.849
0.641                   -6.83404         138.853         -48.4044         27.3797         -48.4046         27.3805       -0.0305128         140.762
0.642                    -7.2094         138.672          -48.309         24.9291         -48.3092         24.9299       -0.0308742         140.674
0.643                   -7.59232         138.723         -48.2174         22.4668         -48.2176         22.4677       -0.0312417         140.586
0.644                   -7.97826         139.032         -48.1295         19.9957         -48.1298         19.9968       -0.0316155         140.498
0.645                   -8.36147          139.62         -48.0457          17.519         -48.0459         17.5202       -0.0319954         140.409
0.646                   -8.73486         140.503         -47.9659         15.0398         -47.9661          15.041       -0.0323816          140.32
0.647                    -9.0901         141.687         -47.8902          12.561         -47.8904         12.5624       -0.0327742         140.231
0.648                   -9.41793         143.168         -47.8185          10.086         -47.8187         10.0874       -0.0331733         140.141
0.649                   -9.70864         144.922         -47.7507         7.61771         -47.7509         7.61916       -0.0335788         140.051
0.65                    -9.95293         146.909         -47.6867         5.15913         -47.6869          5.1606       -0.0339908         139.961
0.651                   -10.1429         149.073         -47.6264         2.71307         -47.6265         2.71453       -0.0344095          139.87
0.652                   -10.2729         151.338         -47.5694        0.282157         -47.5695        0.283592       -0.0348349         139.779
0.653                   -10.3408         153.625         -47.5155        -2.13121         -47.5156        -2.12982        -0.035267         139.688
0.654                   -10.3476          155.85         -47.4643        -4.52487         -47.4645        -4.52355       -0.0357059         139.596
0.655                   -10.2977         157.937         -47.4156        -6.89694         -47.4157        -6.89571       -0.0361517         139.504
0.656                   -10.1982         159.824          -47.369        -9.24583         -47.3691         -9.2447       -0.0366045         139.411
0.657                   -10.0575         161.467          -47.324        -11.5702         -47.3241        -11.5692       -0.0370644         139.318
0.658                   -9.88471         162.839         -47.2804        -13.8691         -47.2804        -13.8682       -0.0375316         139.225
0.659                   -9.68864         163.929         -47.2375        -16.1418         -47.2376         -16.141        -0.038006         139.131
0.66                    -9.47729         164.737         -47.1952        -18.3878         -47.1953        -18.3872        -0.038488         139.037
0.661                   -9.25752         165.275         -47.1529        -20.6071          -47.153        -20.6066       -0.0389777         138.942
0.662                   -9.03495         165.558         -47.1103        -22.7996         -47.1104        -22.7993       -0.0394752         138.847
0.663                   -8.81407         165.607          -47.067        -24.9658         -47.0671        -24.9657       -0.0399807         138.752
0.664                    -8.5983         165.442         -47.0227        -27.1063         -47.0227        -27.1063       -0.0404944         138.656
0.665                   -8.39022         165.083         -46.9768        -29.2219         -46.9769        -29.2219       -0.0410166         138.559
0.666                   -8.19165         164.551         -46.9293        -31.3134         -46.9294        -31.3136       -0.0415475         138.462
0.667                   -8.00386         163.863         -46.8796        -33.3821         -46.8797        -33.3824       -0.0420873         138.365
0.668                    -7.8277         163.036         -46.8276        -35.4293         -46.8277        -35.4297       -0.0426362         138.267
0.669                   -7.66365         162.084          -46.773        -37.4564         -46.7731        -37.4568       -0.0431946         138.169
0.67                    -7.51197          161.02         -46.7155        -39.4648         -46.7156        -39.4653       -0.0437627          138.07
0.671                   -7.37274         159.854         -46.6549        -41.4563          -46.655        -41.4569       -0.0443408         137.971
0.672                   -7.24591         158.598          -46.591        -43.4325         -46.5912        -43.4331       -0.0449292         137.872
0.673                   -7.13135         157.258         -46.5237        -45.3953         -46.5238        -45.3959       -0.0455282         137.771
0.674                   -7.02889         155.841         -46.4527        -47.3463         -46.4529        -47.3469        -0.046138         137.671
0.675                   -6.93832         154.354          -46.378        -49.2876         -46.3782        -49.2882        -0.046759         137.569
0.676                   -6.85941         152.802         -46.2994         -51.221         -46.2996        -51.2216       -0.0473916         137.468
0.677                   -6.79197         151.188         -46.2169        -53.1485         -46.2171         -53.149       -0.0480359         137.365
0.678                    -6.7358         149.515         -46.1304        -55.0719         -46.1306        -55.0724       -0.0486925         137.262
0.679                   -6.69073         147.787         -46.0399        -56.9933         -46.0401        -56.9937       -0.0493615         137.159
0.68                    -6.65662         146.005         -45.9453        -58.9145         -45.9455        -58.9149       -0.0500433         137.055
0.681                   -6.63336          144.17         -45.8466        -60.8377         -45.8468         -60.838       -0.0507384          136.95
0.682                    -6.6209         142.284         -45.7438        -62.7646          -45.744        -62.7649        -0.051447         136.845
0.683                   -6.61919         140.347          -45.637        -64.6973         -45.6372        -64.6975       -0.0521695         136.739
0.684                   -6.62827         138.359         -45.5262        -66.6377         -45.5264        -66.6378       -0.0529062         136.633
0.685                   -6.64819          136.32         -45.4115        -68.5877         -45.4116        -68.5877       -0.0536577         136.526
0.686                   -6.67907         134.229         -45.2929        -70.5492         -45.2931        -70.5492       -0.0544242         136.418
0.687                   -6.72107         132.085         -45.1706        -72.5241         -45.1708         -72.524       -0.0552061          136.31
0.688                    -6.7744         129.888         -45.0448        -74.5141         -45.0449         -74.514       -0.0560039         136.201
0.689                   -6.83933         127.635         -44.9154        -76.5212         -44.9155         -76.521        -0.056818         136.091
0.69                     -6.9162         125.325         -44.7828        -78.5471         -44.7829        -78.5468       -0.0576488         135.981
0.691                    -7.0054         122.955          -44.647        -80.5934         -44.6471        -80.5931       -0.0584968          135.87
0.692                   -7.10737         120.522         -44.5083        -82.6619         -44.5084        -82.6616       -0.0593624         135.758
0.693                   -7.22264         118.025          -44.367        -84.7542          -44.367        -84.7538       -0.0602462         135.646
0.694                   -7.35181         115.459         -44.2231        -86.8717         -44.2232        -86.8713       -0.0611485         135.533
0.695                   -7.49554         112.821         -44.0771        -89.0159         -44.0771        -89.0155       -0.0620699         135.419
0.696                   -7.65458         110.107         -43.9291        -91.1882         -43.9291        -91.1878        -0.063011         135.305