! TOUCHSTONE file generated by CST MICROWAVE STUDIO
! Date and time: Tue Nov 17 07:11:14 2020
! Project name: Scenario_1_Planar_Body_Tissue_Out_of_Line.cst
! Header version: 2018
! Port assignment regex: !\s*Touchstone port\s*([0-9]+)\s*=\s*(CST MWS port|CST DS port)\s*([0-9]+|Zmin|Zmax)\s*\(\"(.*)\"\)(\s*mode\s*([0-9]+))?.*
! Touchstone port assignment:
! Touchstone port 1 = CST MWS port 1 ("")
! Touchstone port 2 = CST MWS port 2 ("")
# GHz S DB R 50
0.5                    -0.151399        -121.629         -64.7293        -22.0201         -64.7293        -22.0172      -0.00762801         151.154
0.501                  -0.153369        -122.062         -64.6452        -23.5756         -64.6436        -23.5692      -0.00769605         151.089
0.502                  -0.155443        -122.498         -64.5584        -25.1485         -64.5553        -25.1388      -0.00776436         151.024
0.503                  -0.157626        -122.937         -64.4689         -26.739         -64.4642        -26.7261      -0.00783295         150.958
0.504                  -0.159927        -123.379         -64.3766        -28.3471         -64.3704        -28.3312      -0.00790183         150.893
0.505                   -0.16235        -123.825         -64.2814        -29.9729         -64.2737        -29.9541      -0.00797103         150.828
0.506                  -0.164906        -124.273         -64.1832        -31.6164         -64.1741         -31.595      -0.00804057         150.762
0.507                    -0.1676        -124.726          -64.082        -33.2777         -64.0715        -33.2537      -0.00811045         150.696
0.508                  -0.170443        -125.181         -63.9777        -34.9568         -63.9658        -34.9306      -0.00818072         150.631
0.509                  -0.173443         -125.64         -63.8703        -36.6538         -63.8571        -36.6255      -0.00825137         150.565
0.51                   -0.176612        -126.103         -63.7596        -38.3688         -63.7451        -38.3386      -0.00832245         150.499
0.511                   -0.17996        -126.569         -63.6456        -40.1017         -63.6299        -40.0699      -0.00839396         150.433
0.512                  -0.183499        -127.039         -63.5282        -41.8526         -63.5114        -41.8195      -0.00846594         150.367
0.513                  -0.187242        -127.513         -63.4074        -43.6217         -63.3895        -43.5875       -0.0085384         150.301
0.514                  -0.191204        -127.991         -63.2831        -45.4089         -63.2642        -45.3739      -0.00861138         150.235
0.515                  -0.195401        -128.473         -63.1552        -47.2143         -63.1353        -47.1788      -0.00868489         150.168
0.516                  -0.199847        -128.959         -63.0236         -49.038         -63.0029        -49.0023      -0.00875898         150.102
0.517                  -0.204563        -129.449         -62.8884        -50.8801         -62.8668        -50.8445      -0.00883366         150.035
0.518                  -0.209566        -129.944         -62.7494        -52.7408         -62.7271        -52.7056      -0.00890897         149.969
0.519                   -0.21488        -130.442         -62.6066          -54.62         -62.5836        -54.5855      -0.00898494         149.902
0.52                   -0.220527        -130.946         -62.4599         -56.518         -62.4363        -56.4846       -0.0090616         149.836
0.521                  -0.226532        -131.454         -62.3093         -58.435         -62.2852         -58.403      -0.00913899         149.769
0.522                  -0.232924        -131.966         -62.1546        -60.3711         -62.1302        -60.3408      -0.00921715         149.702
0.523                  -0.239732        -132.484          -61.996        -62.3266         -61.9712        -62.2983      -0.00929611         149.635
0.524                   -0.24699        -133.006         -61.8332        -64.3018         -61.8082        -64.2759      -0.00937592         149.568
0.525                  -0.254734        -133.533         -61.6664         -66.297         -61.6412        -66.2737      -0.00945662         149.501
0.526                  -0.263003        -134.066         -61.4953        -68.3126         -61.4701        -68.2921      -0.00953826         149.433
0.527                   -0.27184        -134.603           -61.32        -70.3489         -61.2949        -70.3316      -0.00962088         149.366
0.528                  -0.281292        -135.146         -61.1404        -72.4066         -61.1155        -72.3927      -0.00970454         149.298
0.529                  -0.291411        -135.694         -60.9566        -74.4861          -60.932        -74.4758      -0.00978929         149.231
0.53                   -0.302252        -136.247         -60.7683        -76.5882         -60.7442        -76.5815      -0.00987519         149.163
0.531                  -0.313877        -136.806         -60.5758        -78.7134         -60.5521        -78.7106      -0.00996229         149.095
0.532                  -0.326353         -137.37         -60.3788        -80.8628         -60.3557        -80.8639       -0.0100507         149.028
0.533                  -0.339751        -137.939         -60.1774        -83.0372         -60.1551        -83.0422       -0.0101404          148.96
0.534                  -0.354151        -138.514         -59.9715        -85.2377         -59.9501        -85.2465       -0.0102315         148.892
0.535                  -0.369637        -139.093         -59.7613        -87.4655         -59.7408        -87.4781       -0.0103241         148.823
0.536                  -0.386303        -139.678         -59.5465         -89.722         -59.5271        -89.7381       -0.0104182         148.755
0.537                  -0.404246        -140.268         -59.3274        -92.0088         -59.3091        -92.0281        -0.010514         148.687
0.538                  -0.423573        -140.862         -59.1038        -94.3274         -59.0867        -94.3497       -0.0106114         148.618
0.539                  -0.444397         -141.46         -58.8758          -96.68         -58.8601        -96.7047       -0.0107107          148.55
0.54                   -0.466835        -142.063         -58.6436        -99.0686         -58.6292        -99.0953       -0.0108117         148.481
0.541                  -0.491012        -142.668         -58.4071        -101.496         -58.3942        -101.524       -0.0109148         148.412
0.542                  -0.517054        -143.275         -58.1665        -103.964         -58.1551        -103.992       -0.0110198         148.343
0.543                  -0.545089        -143.884         -57.9219        -106.476          -57.912        -106.505       -0.0111269         148.274
0.544                  -0.575244        -144.493         -57.6736        -109.035         -57.6652        -109.063       -0.0112361         148.205
0.545                  -0.607637        -145.101         -57.4218        -111.645         -57.4148        -111.672       -0.0113476         148.136
0.546                  -0.642377        -145.707         -57.1669         -114.31         -57.1612        -114.335       -0.0114612         148.067
0.547                  -0.679551        -146.308         -56.9092        -117.033         -56.9048        -117.055       -0.0115772         147.997
0.548                  -0.719219        -146.903         -56.6493         -119.82         -56.6461        -119.838       -0.0116954         147.928
0.549                  -0.761401        -147.489         -56.3878        -122.674         -56.3856        -122.688       -0.0118159         147.858
0.55                   -0.806066        -148.064         -56.1256        -125.599         -56.1242         -125.61       -0.0119386         147.788
0.551                  -0.853116        -148.624         -55.8635        -128.602         -55.8627        -128.608       -0.0120635         147.718
0.552                  -0.902373        -149.168         -55.6027        -131.685         -55.6024        -131.688       -0.0121906         147.649
0.553                  -0.953563         -149.69         -55.3445        -134.852         -55.3445        -134.852       -0.0123197         147.578
0.554                    -1.0063         -150.19         -55.0906        -138.107         -55.0906        -138.105       -0.0124507         147.508
0.555                    -1.0601        -150.663         -54.8425        -141.451         -54.8426        -141.448       -0.0125835         147.438
0.556                   -1.11432        -151.108         -54.6023        -144.883         -54.6023        -144.881       -0.0127178         147.368
0.557                   -1.16824        -151.522         -54.3721        -148.402          -54.372        -148.402       -0.0128535         147.297
0.558                   -1.22103        -151.905         -54.1541        -152.003         -54.1539        -152.006       -0.0129904         147.226
0.559                   -1.27179        -152.258         -53.9503        -155.678         -53.9503        -155.686       -0.0131284         147.156
0.56                    -1.31959        -152.581          -53.763        -159.417         -53.7633        -159.429       -0.0132671         147.085
0.561                   -1.36355        -152.879         -53.5939        -163.204         -53.5948        -163.222       -0.0134063         147.014
0.562                   -1.40284        -153.154         -53.4445        -167.025         -53.4462        -167.046        -0.013546         146.943
0.563                   -1.43679        -153.413         -53.3158        -170.858         -53.3183        -170.882       -0.0136859         146.872
0.564                   -1.46493        -153.662          -53.208        -174.684         -53.2114        -174.709        -0.013826           146.8
0.565                   -1.48697        -153.908         -53.1209        -178.483          -53.125        -178.505        -0.013966         146.729
0.566                    -1.5029        -154.158         -53.0534         177.767          -53.058         177.748        -0.014106         146.657
0.567                   -1.51289        -154.419          -53.004         174.081         -53.0086         174.067       -0.0142459         146.586
0.568                   -1.51735        -154.698         -52.9706         170.476         -52.9748         170.467       -0.0143857         146.514
0.569                   -1.51683            -155         -52.9508         166.961         -52.9542         166.958       -0.0145254         146.442
0.57                    -1.51201        -155.329         -52.9422         163.545         -52.9441         163.545       -0.0146652          146.37
0.571                   -1.50362        -155.688         -52.9421         160.231         -52.9421         160.231        -0.014805         146.298
0.572                   -1.49242        -156.081         -52.9481         157.018         -52.9459         157.015       -0.0149451         146.225
0.573                   -1.47916        -156.507          -52.958         153.905         -52.9534         153.894       -0.0150855         146.153
0.574                   -1.46455        -156.967           -52.97         150.886          -52.963         150.863       -0.0152263          146.08
0.575                   -1.44922        -157.461         -52.9823         147.954         -52.9731         147.916       -0.0153678         146.007
0.576                   -1.43374        -157.988         -52.9938         145.103         -52.9827         145.045       -0.0155101         145.934
0.577                    -1.4186        -158.547         -53.0035         142.325         -52.9909         142.244       -0.0156532         145.861
0.578                   -1.40423        -159.136         -53.0107         139.611         -52.9971         139.506       -0.0157975         145.788
0.579                   -1.39096        -159.753         -53.0149         136.956          -53.001         136.823       -0.0159429         145.714
0.58                    -1.37908        -160.397          -53.016         134.352         -53.0023         134.192       -0.0160897         145.641
0.581                   -1.36883        -161.067         -53.0137         131.793         -53.0009         131.605       -0.0162381         145.567
0.582                   -1.36038        -161.759         -53.0081         129.274         -52.9968         129.059        -0.016388         145.493
0.583                   -1.35388        -162.475         -52.9993         126.791           -52.99          126.55       -0.0165397         145.419
0.584                   -1.34945         -163.21         -52.9873         124.338         -52.9806         124.075       -0.0166933         145.345
0.585                   -1.34718        -163.966         -52.9725         121.914         -52.9686          121.63       -0.0168489          145.27
0.586                   -1.34715         -164.74         -52.9548         119.516         -52.9542         119.213       -0.0170065         145.196
0.587                   -1.34942        -165.531         -52.9346          117.14         -52.9375         116.823       -0.0171663         145.121
0.588                   -1.35405         -166.34         -52.9119         114.786         -52.9186         114.457       -0.0173283         145.046
0.589                   -1.36108        -167.164          -52.887         112.453         -52.8975         112.115       -0.0174928         144.971
0.59                    -1.37058        -168.003         -52.8598         110.138         -52.8743         109.795       -0.0176596         144.895
0.591                   -1.38257        -168.857         -52.8306         107.841          -52.849         107.497       -0.0178289          144.82
0.592                   -1.39713        -169.725         -52.7995         105.562         -52.8216         105.218       -0.0180008         144.744
0.593                   -1.41431        -170.607         -52.7664         103.299         -52.7922          102.96       -0.0181753         144.668
0.594                   -1.43418        -171.503         -52.7314         101.052         -52.7606         100.719       -0.0183524         144.592
0.595                   -1.45679        -172.411         -52.6945         98.8202          -52.727         98.4974       -0.0185324         144.516
0.596                   -1.48224        -173.332         -52.6558         96.6038         -52.6913         96.2928       -0.0187151          144.44
0.597                   -1.51062        -174.266         -52.6151         94.4021         -52.6534         94.1047       -0.0189007         144.363
0.598                   -1.54201        -175.211         -52.5725         92.2145         -52.6132         91.9326       -0.0190892         144.287
0.599                   -1.57653        -176.168         -52.5279         90.0405         -52.5707         89.7757       -0.0192806          144.21
0.6                      -1.6143        -177.137         -52.4812         87.8796         -52.5258         87.6331        -0.019475         144.133
0.601                   -1.65544        -178.117         -52.4324         85.7313         -52.4784          85.504       -0.0196725         144.055
0.602                    -1.7001        -179.107         -52.3814         83.5949         -52.4284         83.3877       -0.0198731         143.978
0.603                   -1.74844         179.892         -52.3281         81.4697         -52.3758         81.2831       -0.0200768           143.9
0.604                    -1.8006         178.882         -52.2724          79.355         -52.3205         79.1892       -0.0202838         143.822
0.605                   -1.85678         177.863         -52.2143           77.25         -52.2624         77.1051       -0.0204939         143.744
0.606                   -1.91715         176.835         -52.1535         75.1538         -52.2013         75.0296       -0.0207073         143.666
0.607                   -1.98192           175.8         -52.0902         73.0654         -52.1373         72.9615       -0.0209241         143.587
0.608                   -2.05129         174.758         -52.0241         70.9839         -52.0702         70.8997       -0.0211442         143.508
0.609                   -2.12548         173.711         -51.9551         68.9081         -51.9999         68.8429       -0.0213678         143.429
0.61                    -2.20472         172.659         -51.8832         66.8369         -51.9265         66.7896       -0.0215947          143.35
0.611                   -2.28925         171.605         -51.8083          64.769         -51.8498         64.7385       -0.0218252         143.271
0.612                   -2.37929          170.55         -51.7303          62.703         -51.7697          62.688       -0.0220592         143.191
0.613                   -2.47509         169.496         -51.6492         60.6376         -51.6863         60.6366       -0.0222969         143.111
0.614                   -2.57689         168.445         -51.5649         58.5712         -51.5995         58.5826       -0.0225381         143.031
0.615                   -2.68492         167.399         -51.4774         56.5022         -51.5093         56.5244        -0.022783         142.951
0.616                    -2.7994         166.362         -51.3866         54.4289         -51.4157           54.46       -0.0230317         142.871
0.617                   -2.92055         165.336         -51.2925         52.3497         -51.3187         52.3876       -0.0232841          142.79
0.618                   -3.04854         164.325         -51.1951         50.2626         -51.2184         50.3055       -0.0235403         142.709
0.619                   -3.18353         163.334         -51.0945         48.1657         -51.1148         48.2115       -0.0238004         142.628
0.62                    -3.32563         162.365         -50.9907         46.0571          -51.008         46.1037       -0.0240645         142.546
0.621                   -3.47489         161.425         -50.8838         43.9347         -50.8982           43.98       -0.0243324         142.465
0.622                    -3.6313         160.517         -50.7739         41.7965         -50.7855         41.8386       -0.0246044         142.383
0.623                   -3.79478         159.649         -50.6612         39.6403         -50.6701         39.6773       -0.0248804           142.3
0.624                   -3.96514         158.825         -50.5458         37.4643         -50.5521         37.4941       -0.0251606         142.218
0.625                   -4.14206         158.052          -50.428         35.2662          -50.432         35.2873       -0.0254449         142.135
0.626                   -4.32513         157.336          -50.308         33.0442         -50.3099         33.0551       -0.0257334         142.052
0.627                   -4.51375         156.685         -50.1862         30.7964         -50.1862         30.7958       -0.0260262         141.969
0.628                   -4.70715         156.104         -50.0628         28.5211         -50.0613          28.508       -0.0263233         141.886
0.629                    -4.9044         155.601         -49.9383         26.2169         -49.9357         26.1905       -0.0266248         141.802
0.63                    -5.10434         155.181         -49.8131         23.8826         -49.8097         23.8426       -0.0269307         141.718
0.631                   -5.30561          154.85         -49.6878         21.5173         -49.6838         21.4635       -0.0272411         141.634
0.632                   -5.50664         154.613         -49.5627         19.1204         -49.5586         19.0533        -0.027556         141.549
0.633                   -5.70565         154.472         -49.4384         16.6919         -49.4346         16.6121       -0.0278755         141.464
0.634                   -5.90067         154.431         -49.3156         14.2322         -49.3122         14.1408       -0.0281998         141.379
0.635                    -6.0896         154.487         -49.1946         11.7421         -49.1921         11.6405       -0.0285287         141.294
0.636                   -6.27024         154.639         -49.0762         9.22318         -49.0748         9.11299       -0.0288625         141.208
0.637                   -6.44037         154.881         -48.9608         6.67739         -48.9606         6.56054       -0.0292012         141.122
0.638                   -6.59783         155.206         -48.8488         4.10727         -48.8501         3.98585       -0.0295448         141.036
0.639                   -6.74061         155.602         -48.7409         1.51586         -48.7436         1.39207       -0.0298934         140.949
0.64                    -6.86696         156.057         -48.6372        -1.09333         -48.6415        -1.21728       -0.0302471         140.862
0.641                   -6.97548         156.555         -48.5382         -3.7164          -48.544        -3.83835        -0.030606         140.775
0.642                   -7.06519         157.078          -48.444        -6.34917         -48.4512         -6.4671       -0.0309702         140.687
0.643                   -7.13557         157.609         -48.3547        -8.98728         -48.3632        -9.09939       -0.0313397         140.599
0.644                   -7.18663         158.129         -48.2703        -11.6263         -48.2799         -11.731       -0.0317147         140.511
0.645                   -7.21886          158.62         -48.1908        -14.2618         -48.2013         -14.358       -0.0320952         140.423
0.646                   -7.23319         159.066          -48.116        -16.8897         -48.1271        -16.9764       -0.0324813         140.334
0.647                   -7.23095          159.45         -48.0455        -19.5059          -48.057        -19.5826       -0.0328732         140.245
0.648                   -7.21378          159.76         -47.9791         -22.107         -47.9907        -22.1734        -0.033271         140.155
0.649                    -7.1835         159.986         -47.9162        -24.6898         -47.9277        -24.7462       -0.0336747         140.065
0.65                    -7.14209          160.12         -47.8565        -27.2517         -47.8676        -27.2984       -0.0340845         139.975
0.651                   -7.09155         160.155         -47.7993        -29.7908         -47.8099        -29.8284       -0.0345006         139.884
0.652                   -7.03386         160.088         -47.7442        -32.3055         -47.7542        -32.3348        -0.034923         139.793
0.653                    -6.9709         159.919         -47.6906        -34.7948         -47.6998        -34.8168       -0.0353518         139.702
0.654                   -6.90445         159.646         -47.6379        -37.2583         -47.6462         -37.274       -0.0357874          139.61
0.655                   -6.83614         159.271         -47.5857        -39.6961          -47.593        -39.7065       -0.0362296         139.518
0.656                   -6.76741         158.796         -47.5334        -42.1087         -47.5398        -42.1149       -0.0366789         139.425
0.657                   -6.69959         158.224         -47.4805        -44.4969          -47.486        -44.4998       -0.0371352         139.332
0.658                    -6.6338          157.56         -47.4267         -46.862         -47.4313        -46.8625       -0.0375988         139.239
0.659                   -6.57107         156.805         -47.3716        -49.2054         -47.3753        -49.2044       -0.0380699         139.145
0.66                    -6.51225         155.966         -47.3148        -51.5288         -47.3176         -51.527       -0.0385486         139.051
0.661                    -6.4581         155.044          -47.256        -53.8341         -47.2581        -53.8321       -0.0390352         138.956
0.662                   -6.40926         154.044          -47.195        -56.1232         -47.1964        -56.1215       -0.0395299         138.861
0.663                   -6.36632          152.97         -47.1315        -58.3983         -47.1324        -58.3972       -0.0400328         138.766
0.664                   -6.32975         151.825         -47.0655        -60.6614         -47.0658        -60.6612       -0.0405441          138.67
0.665                   -6.30001         150.612         -46.9967        -62.9146         -46.9967        -62.9155       -0.0410642         138.573
0.666                   -6.27748         149.334         -46.9252        -65.1601         -46.9248        -65.1621       -0.0415933         138.477
0.667                   -6.26254         147.993         -46.8508        -67.3999         -46.8502        -67.4031       -0.0421316         138.379
0.668                   -6.25552         146.592         -46.7736         -69.636         -46.7728        -69.6403       -0.0426793         138.282
0.669                   -6.25675         145.133         -46.6935        -71.8704         -46.6926        -71.8756       -0.0432368         138.183
0.67                    -6.26656         143.616         -46.6107         -74.105         -46.6097         -74.111       -0.0438042         138.085
0.671                   -6.28529         142.045          -46.525        -76.3415          -46.524        -76.3482        -0.044382         137.985
0.672                   -6.31327         140.419         -46.4367        -78.5817         -46.4358        -78.5888       -0.0449703         137.886
0.673                   -6.35087         138.741         -46.3459        -80.8271          -46.345        -80.8345       -0.0455695         137.785
0.674                   -6.39848          137.01         -46.2526        -83.0794         -46.2518        -83.0867       -0.0461799         137.685
0.675                    -6.4565         135.228          -46.157        -85.3398         -46.1563         -85.347       -0.0468018         137.583
0.676                   -6.52539         133.395         -46.0593        -87.6097         -46.0586        -87.6165       -0.0474356         137.482
0.677                   -6.60565         131.511         -45.9596        -89.8904          -45.959        -89.8967       -0.0480815         137.379
0.678                   -6.69781         129.576         -45.8581         -92.183         -45.8576        -92.1885       -0.0487399         137.276
0.679                   -6.80247         127.591          -45.755        -94.4883         -45.7546        -94.4931       -0.0494112         137.173
0.68                    -6.92028         125.556         -45.6505        -96.8075         -45.6502        -96.8113       -0.0500958         137.069
0.681                   -7.05196          123.47         -45.5448        -99.1412         -45.5445         -99.144       -0.0507939         136.964
0.682                   -7.19832         121.332         -45.4381         -101.49         -45.4379        -101.492        -0.051506         136.859
0.683                   -7.36022         119.144         -45.3307        -103.855         -45.3305        -103.856       -0.0522325         136.753
0.684                   -7.53863         116.904         -45.2227        -106.236         -45.2226        -106.236       -0.0529737         136.647
0.685                   -7.73463         114.612         -45.1145        -108.633         -45.1143        -108.632       -0.0537301          136.54
0.686                   -7.94941         112.267         -45.0063        -111.048         -45.0061        -111.045        -0.054502         136.432
0.687                   -8.18428         109.868         -44.8983        -113.479          -44.898        -113.476         -0.05529         136.324
0.688                   -8.44073         107.416         -44.7907        -115.927         -44.7904        -115.923       -0.0560944         136.215
0.689                    -8.7204         104.908         -44.6839        -118.391         -44.6836        -118.387       -0.0569156         136.105
0.69                    -9.02513         102.344          -44.578        -120.872         -44.5777        -120.868       -0.0577541         135.995
0.691                   -9.35701          99.723         -44.4734        -123.369          -44.473        -123.364       -0.0586104         135.884
0.692                   -9.71842         97.0423         -44.3702        -125.881         -44.3698        -125.876       -0.0594849         135.772
0.693                   -10.1121         94.2999         -44.2688        -128.407         -44.2683        -128.402       -0.0603782          135.66
0.694                    -10.541         91.4929         -44.1693        -130.947         -44.1687        -130.942       -0.0612906         135.547
0.695                    -11.009         88.6174         -44.0719          -133.5         -44.0714        -133.495       -0.0622228         135.433
0.696                   -11.5202          85.668          -43.977        -136.064         -43.9764        -136.059       -0.0631751         135.319
0.697                   -12.0796         82.6376         -43.8846        -138.638         -43.8841        -138.634       -0.0641482         135.203
0.698                   -12.6936         79.5161         -43.7951         -141.22         -43.7945        -141.217       -0.0651425         135.087