! TOUCHSTONE file generated by CST MICROWAVE STUDIO
! Date and time: Thu Feb 11 19:32:22 2021
! Project name: Scenario_1_Planar_Body_Tissue_Out_of_Line.cst
! Parameters = {L_HA=400; Ltissue=1000; MT=2.54; Rad_Dielectric=30; Rad_Lower=7.3; Rad_Upper=30; Wtissue=1000; a_HA=580; a_WG=246; b_HA=500; b_WG=121; c_HA=0; c_WG=187; d_feed=85; dx1=346; dy1=-155.7; h_feed=15; h_lower=18; h_upper=40; hfat=3; hgap=25; hmuscle=50; hskin=1.5}
! Header version: 2018
! Port assignment regex: !\s*Touchstone port\s*([0-9]+)\s*=\s*(CST MWS port|CST DS port)\s*([0-9]+|Zmin|Zmax)\s*\(\"(.*)\"\)(\s*mode\s*([0-9]+))?.*
! Touchstone port assignment:
! Touchstone port 1 = CST MWS port 1 ("")
! Touchstone port 2 = CST MWS port 2 ("")
# GHz S DB R 50
0.5                     -0.27414         -121.57         -56.3237         24.7698         -56.3234           24.77      -0.00818522         151.103
0.501                  -0.275234        -121.959         -55.9735         28.6133         -55.9776         28.6062      -0.00825122         151.038
0.502                  -0.276327         -122.35         -55.5128         33.5719         -55.5235         33.5563      -0.00831746         150.973
0.503                  -0.277422        -122.744         -54.8843         40.0914         -54.9055         40.0662      -0.00838395         150.907
0.504                  -0.278522        -123.141         -53.9937         48.8843          -54.032         48.8489      -0.00845071         150.842
0.505                  -0.279629        -123.541         -52.6877         61.1959         -52.7553         61.1463      -0.00851774         150.777
0.506                  -0.280744        -123.944         -50.7484         79.5363         -50.8679         79.4353      -0.00858506         150.711
0.507                  -0.281871         -124.35         -48.1333         109.699         -48.3384         109.301      -0.00865259         150.645
0.508                  -0.283016        -124.759         -46.5437         159.023         -46.7736         157.678      -0.00872016          150.58
0.509                  -0.284179        -125.172         -48.4898        -152.366         -48.5993        -153.957      -0.00878855         150.514
0.51                    -0.28536        -125.587         -51.1698         -122.25         -51.2249        -123.438      -0.00885713         150.448
0.511                  -0.286565        -126.006         -53.0576        -103.192         -53.0985        -104.044      -0.00892593         150.382
0.512                  -0.287797        -126.428         -54.2525        -90.0144         -54.2878         -90.638      -0.00899507         150.316
0.513                  -0.289059        -126.854         -54.9983        -80.4572         -55.0293        -80.9255      -0.00906458          150.25
0.514                  -0.290354        -127.283         -55.4655        -73.3351         -55.4928        -73.6958      -0.00913444         150.184
0.515                  -0.291686        -127.715          -55.759        -67.9266         -55.7829         -68.211      -0.00920469         150.118
0.516                  -0.293058        -128.151         -55.9414        -63.7596         -55.9623        -63.9886      -0.00927533         150.051
0.517                  -0.294474         -128.59         -56.0507        -60.5134         -56.0691        -60.7012      -0.00934637         149.985
0.518                  -0.295938        -129.033         -56.1107        -57.9647         -56.1268        -58.1211      -0.00941782         149.918
0.519                  -0.297453        -129.479         -56.1362        -55.9544         -56.1504        -56.0864      -0.00948971         149.852
0.52                   -0.299024        -129.929          -56.137        -54.3672         -56.1495          -54.48      -0.00956203         149.785
0.521                  -0.300654        -130.383         -56.1196        -53.1178         -56.1307        -53.2151       -0.0096348         149.718
0.522                  -0.302349        -130.841         -56.0884        -52.1421         -56.0984        -52.2268      -0.00970804         149.651
0.523                  -0.304114        -131.302         -56.0467        -51.3911         -56.0556        -51.4653      -0.00978176         149.584
0.524                  -0.305951        -131.768         -55.9965        -50.8269         -56.0045        -50.8924      -0.00985597         149.517
0.525                  -0.307868        -132.237         -55.9395        -50.4198         -55.9467        -50.4778      -0.00993069          149.45
0.526                  -0.309869         -132.71         -55.8769        -50.1459         -55.8834        -50.1977       -0.0100059         149.383
0.527                  -0.311958        -133.188         -55.8095        -49.9865         -55.8154        -50.0328       -0.0100817         149.316
0.528                  -0.314143        -133.669         -55.7381         -49.926         -55.7433        -49.9676       -0.0101581         149.248
0.529                  -0.316429        -134.155          -55.663        -49.9517         -55.6677        -49.9892        -0.010235         149.181
0.53                   -0.318822        -134.646         -55.5847        -50.0532          -55.589        -50.0871       -0.0103125         149.113
0.531                  -0.321328         -135.14         -55.5034        -50.2219         -55.5073        -50.2525       -0.0103906         149.045
0.532                  -0.323955        -135.639         -55.4195        -50.4503          -55.423        -50.4782       -0.0104693         148.978
0.533                  -0.326709        -136.143          -55.333        -50.7324         -55.3362        -50.7577       -0.0105486          148.91
0.534                  -0.329597        -136.651         -55.2442        -51.0629         -55.2471         -51.086       -0.0106286         148.842
0.535                  -0.332629        -137.164          -55.153        -51.4374         -55.1557        -51.4584       -0.0107093         148.774
0.536                   -0.33581        -137.682         -55.0597        -51.8519         -55.0621        -51.8711       -0.0107906         148.705
0.537                  -0.339151        -138.204         -54.9643        -52.3033         -54.9664        -52.3207       -0.0108727         148.637
0.538                  -0.342661        -138.732         -54.8667        -52.7885         -54.8687        -52.8045       -0.0109555         148.569
0.539                  -0.346347        -139.264         -54.7672        -53.3051          -54.769        -53.3197        -0.011039           148.5
0.54                   -0.350221        -139.802         -54.6656         -53.851         -54.6672        -53.8644       -0.0111233         148.431
0.541                  -0.354294        -140.345          -54.562        -54.4242         -54.5634        -54.4364       -0.0112083         148.363
0.542                  -0.358575        -140.894         -54.4564        -55.0231         -54.4577        -55.0342       -0.0112942         148.294
0.543                  -0.363076        -141.448         -54.3488        -55.6462           -54.35        -55.6563       -0.0113809         148.225
0.544                  -0.367811        -142.007         -54.2393        -56.2921         -54.2403        -56.3014       -0.0114685         148.156
0.545                  -0.372791        -142.573         -54.1277        -56.9599         -54.1287        -56.9683       -0.0115569         148.087
0.546                   -0.37803        -143.144         -54.0142        -57.6483          -54.015         -57.656       -0.0116462         148.017
0.547                  -0.383543        -143.721         -53.8987        -58.3567         -53.8994        -58.3637       -0.0117364         147.948
0.548                  -0.389345        -144.304         -53.7811        -59.0841         -53.7818        -59.0905       -0.0118275         147.878
0.549                  -0.395452        -144.893         -53.6615        -59.8299         -53.6621        -59.8357       -0.0119197         147.809
0.55                   -0.401882        -145.489         -53.5399        -60.5935         -53.5404        -60.5987       -0.0120128         147.739
0.551                  -0.408651        -146.091         -53.4162        -61.3743         -53.4166        -61.3791       -0.0121069         147.669
0.552                   -0.41578          -146.7         -53.2904         -62.172         -53.2908        -62.1763        -0.012202         147.599
0.553                  -0.423288        -147.316         -53.1625         -62.986         -53.1628        -62.9899       -0.0122982         147.529
0.554                  -0.431198        -147.938         -53.0325        -63.8161         -53.0328        -63.8196       -0.0123955         147.459
0.555                  -0.439533        -148.568         -52.9004         -64.662         -52.9006        -64.6651        -0.012494         147.389
0.556                  -0.448316        -149.205         -52.7661        -65.5234         -52.7662        -65.5261       -0.0125935         147.318
0.557                  -0.457574         -149.85         -52.6296        -66.4001         -52.6297        -66.4025       -0.0126943         147.248
0.558                  -0.467334        -150.502         -52.4909         -67.292          -52.491        -67.2941       -0.0127963         147.177
0.559                  -0.477626        -151.162           -52.35        -68.1989           -52.35        -68.2008       -0.0128995         147.106
0.56                   -0.488482         -151.83         -52.2068        -69.1208         -52.2069        -69.1225       -0.0130039         147.035
0.561                  -0.499935        -152.506         -52.0614        -70.0577         -52.0614        -70.0591       -0.0131097         146.964
0.562                   -0.51202         -153.19         -51.9137        -71.0095         -51.9137        -71.0107       -0.0132169         146.893
0.563                  -0.524777        -153.883         -51.7637        -71.9763         -51.7636        -71.9774       -0.0133254         146.821
0.564                  -0.538246        -154.585         -51.6113        -72.9582         -51.6112         -72.959       -0.0134353          146.75
0.565                  -0.552471        -155.296         -51.4566        -73.9551         -51.4565        -73.9558       -0.0135467         146.678
0.566                  -0.567499        -156.017         -51.2995        -74.9674         -51.2994        -74.9679       -0.0136595         146.606
0.567                   -0.58338        -156.747           -51.14        -75.9951         -51.1399        -75.9955       -0.0137739         146.535
0.568                  -0.600169        -157.486         -50.9782        -77.0384          -50.978        -77.0387       -0.0138899         146.463
0.569                  -0.617922        -158.236         -50.8139        -78.0975         -50.8137        -78.0978       -0.0140075          146.39
0.57                   -0.636703        -158.996         -50.6471        -79.1728          -50.647        -79.1729       -0.0141267         146.318
0.571                  -0.656578        -159.766         -50.4779        -80.2645         -50.4778        -80.2646       -0.0142477         146.246
0.572                  -0.677618        -160.547         -50.3063        -81.3729         -50.3061        -81.3729       -0.0143704         146.173
0.573                  -0.699901        -161.339         -50.1321        -82.4985          -50.132        -82.4984       -0.0144949           146.1
0.574                  -0.723511        -162.142         -49.9555        -83.6415         -49.9553        -83.6414       -0.0146212         146.027
0.575                  -0.748535        -162.957         -49.7764        -84.8025         -49.7762        -84.8023       -0.0147495         145.954
0.576                  -0.775072        -163.784         -49.5948        -85.9818         -49.5946        -85.9816       -0.0148797         145.881
0.577                  -0.803225        -164.623         -49.4108        -87.1801         -49.4106        -87.1798        -0.015012         145.808
0.578                  -0.833106        -165.475         -49.2242        -88.3977          -49.224        -88.3975       -0.0151463         145.734
0.579                  -0.864835        -166.339         -49.0351        -89.6354          -49.035        -89.6352       -0.0152827          145.66
0.58                   -0.898545        -167.215         -48.8436        -90.8938         -48.8434        -90.8935       -0.0154214         145.587
0.581                  -0.934375        -168.105         -48.6497        -92.1734         -48.6495        -92.1731       -0.0155623         145.513
0.582                  -0.972479        -169.009         -48.4533         -93.475         -48.4531        -93.4747       -0.0157055         145.439
0.583                   -1.01302        -169.926         -48.2545        -94.7993         -48.2543         -94.799       -0.0158512         145.364
0.584                   -1.05618        -170.857         -48.0533        -96.1472         -48.0531        -96.1469       -0.0159993          145.29
0.585                   -1.10214        -171.801         -47.8498        -97.5193         -47.8496         -97.519       -0.0161499         145.215
0.586                   -1.15113         -172.76          -47.644        -98.9167         -47.6439        -98.9164       -0.0163032          145.14
0.587                   -1.20335        -173.733         -47.4361         -100.34         -47.4359         -100.34       -0.0164592         145.065
0.588                   -1.25906         -174.72         -47.2259        -101.791         -47.2257         -101.79        -0.016618          144.99
0.589                   -1.31851        -175.721         -47.0137        -103.269         -47.0135        -103.269       -0.0167797         144.915
0.59                      -1.382        -176.735         -46.7995        -104.777         -46.7993        -104.776       -0.0169443         144.839
0.591                   -1.44982        -177.764         -46.5834        -106.314         -46.5832        -106.314        -0.017112         144.764
0.592                   -1.52231        -178.806         -46.3655        -107.883         -46.3654        -107.883       -0.0172828         144.688
0.593                   -1.59982         -179.86          -46.146        -109.484         -46.1459        -109.484       -0.0174569         144.612
0.594                   -1.68273         179.073         -45.9251        -111.119         -45.9249        -111.119       -0.0176343         144.536
0.595                   -1.77146         177.995         -45.7027        -112.788         -45.7026        -112.788       -0.0178151         144.459
0.596                   -1.86643         176.907         -45.4793        -114.493         -45.4792        -114.493       -0.0179995         144.383
0.597                   -1.96813          175.81         -45.2549        -116.235         -45.2548        -116.235       -0.0181876         144.306
0.598                   -2.07704         174.707         -45.0298        -118.015         -45.0297        -118.014       -0.0183794         144.229
0.599                   -2.19371         173.598         -44.8043        -119.834         -44.8042        -119.833       -0.0185751         144.152
0.6                     -2.31867         172.487         -44.5785        -121.693         -44.5785        -121.693       -0.0187747         144.074
0.601                   -2.45253         171.377         -44.3529        -123.593         -44.3529        -123.593       -0.0189784         143.997
0.602                    -2.5959         170.271         -44.1277        -125.536         -44.1277        -125.536       -0.0191863         143.919
0.603                   -2.74939         169.174         -43.9034        -127.522         -43.9033        -127.522       -0.0193984         143.841
0.604                   -2.91365          168.09         -43.6801        -129.551         -43.6801        -129.551       -0.0196149         143.763
0.605                   -3.08932         167.026         -43.4585        -131.625         -43.4585        -131.625       -0.0198358         143.685
0.606                   -3.27703         165.989         -43.2389        -133.744         -43.2388        -133.744       -0.0200613         143.606
0.607                   -3.47739         164.986         -43.0217        -135.908         -43.0217        -135.908       -0.0202913         143.528
0.608                   -3.69093         164.027         -42.8075        -138.116         -42.8074        -138.116        -0.020526         143.449
0.609                   -3.91813         163.123         -42.5967         -140.37         -42.5967         -140.37       -0.0207654          143.37
0.61                    -4.15931         162.286         -42.3899        -142.667         -42.3899        -142.667       -0.0210096          143.29
0.611                   -4.41465         161.531         -42.1876        -145.008         -42.1875        -145.008       -0.0212584         143.211
0.612                   -4.68407         160.872         -41.9903         -147.39         -41.9903         -147.39        -0.021512         143.131
0.613                   -4.96719         160.327         -41.7985        -149.813         -41.7985        -149.813       -0.0217702         143.051
0.614                   -5.26321         159.916         -41.6129        -152.274         -41.6129        -152.274       -0.0220331         142.971
0.615                   -5.57085         159.658         -41.4339         -154.77         -41.4339         -154.77       -0.0223005         142.891
0.616                   -5.88816         159.577          -41.262          -157.3          -41.262          -157.3       -0.0225724          142.81
0.617                   -6.21242         159.694         -41.0976         -159.86         -41.0976         -159.86       -0.0228485         142.729
0.618                   -6.54002         160.031         -40.9412        -162.446         -40.9412        -162.446       -0.0231288         142.648
0.619                   -6.86633         160.607         -40.7932        -165.054         -40.7932        -165.054        -0.023413         142.567
0.62                    -7.18563         161.437         -40.6539         -167.68         -40.6539         -167.68       -0.0237009         142.485
0.621                   -7.49117          162.53         -40.5234         -170.32         -40.5234         -170.32       -0.0239922         142.404
0.622                   -7.77531         163.886         -40.4021        -172.969         -40.4021        -172.969       -0.0242867         142.322
0.623                    -8.0299          165.49         -40.2899        -175.622         -40.2899        -175.622       -0.0245841          142.24
0.624                   -8.24687         167.316          -40.187        -178.274          -40.187        -178.274       -0.0248841         142.157
0.625                    -8.4189          169.32         -40.0932         179.079         -40.0932         179.079       -0.0251865         142.075
0.626                   -8.54028         171.448         -40.0085         176.442         -40.0084         176.442       -0.0254908         141.992
0.627                   -8.60762         173.634         -39.9326         173.821         -39.9325         173.821        -0.025797         141.909
0.628                   -8.62025         175.807         -39.8652         171.218         -39.8651         171.218       -0.0261046         141.825
0.629                   -8.58032         177.899          -39.806         168.639          -39.806         168.639       -0.0264135         141.742
0.63                    -8.49241         179.852         -39.7547         166.088         -39.7546         166.088       -0.0267236         141.658
0.631                   -8.36293        -178.382         -39.7107         163.567         -39.7106         163.567       -0.0270346         141.574
0.632                   -8.19927        -176.837         -39.6735          161.08         -39.6735          161.08       -0.0273465         141.489
0.633                   -8.00909         -175.53         -39.6428          158.63         -39.6427         158.629       -0.0276593         141.405
0.634                   -7.79973         -174.47         -39.6178         156.218         -39.6178         156.218       -0.0279729          141.32
0.635                   -7.57777        -173.651         -39.5982         153.847         -39.5981         153.846       -0.0282875         141.235
0.636                   -7.34887        -173.065         -39.5832         151.518         -39.5831         151.517       -0.0286032         141.149
0.637                   -7.11767        -172.696         -39.5724         149.232         -39.5723         149.231       -0.0289201         141.063
0.638                   -6.88786        -172.526         -39.5652         146.989         -39.5651         146.989       -0.0292385         140.977
0.639                   -6.66229        -172.538          -39.561         144.791          -39.561         144.791       -0.0295587          140.89
0.64                    -6.44305        -172.713         -39.5594         142.638         -39.5594         142.637        -0.029881         140.804
0.641                   -6.23164        -173.034         -39.5599         140.528         -39.5598         140.528       -0.0302057         140.717
0.642                   -6.02907        -173.484         -39.5619         138.462         -39.5618         138.462       -0.0305332         140.629
0.643                   -5.83598        -174.049          -39.565          136.44          -39.565         136.439       -0.0308638         140.541
0.644                    -5.6527        -174.715         -39.5689         134.459         -39.5688         134.458        -0.031198         140.453
0.645                   -5.47936         -175.47          -39.573         132.519         -39.5729         132.519       -0.0315362         140.365
0.646                   -5.31589        -176.305         -39.5771          130.62          -39.577         130.619       -0.0318788         140.276
0.647                   -5.16214         -177.21         -39.5807         128.759         -39.5807         128.758       -0.0322261         140.186
0.648                   -5.01786        -178.177         -39.5836         126.936         -39.5836         126.935       -0.0325787         140.097
0.649                   -4.88275        -179.199         -39.5856         125.149         -39.5855         125.148       -0.0329368         140.007
0.65                    -4.75646         179.729         -39.5862         123.396         -39.5862         123.396       -0.0333008         139.916
0.651                   -4.63864         178.613         -39.5853         121.677         -39.5853         121.676       -0.0336712         139.826
0.652                   -4.52893         177.456         -39.5827         119.989         -39.5827         119.989       -0.0340483         139.735
0.653                   -4.42696         176.264         -39.5781         118.332         -39.5781         118.331       -0.0344325         139.643
0.654                   -4.33237         175.037         -39.5714         116.703         -39.5714         116.702        -0.034824         139.551
0.655                   -4.24483         173.781         -39.5624         115.101         -39.5624           115.1       -0.0352232         139.459
0.656                   -4.16401         172.496          -39.551         113.525          -39.551         113.524       -0.0356305         139.366
0.657                   -4.08959         171.184          -39.537         111.972          -39.537         111.972       -0.0360461         139.273
0.658                   -4.02128         169.847         -39.5204         110.442         -39.5204         110.442       -0.0364703         139.179
0.659                   -3.95881         168.486          -39.501         108.934          -39.501         108.933       -0.0369035         139.085
0.66                    -3.90193         167.102         -39.4787         107.444         -39.4787         107.444       -0.0373458         138.991
0.661                    -3.8504         165.696         -39.4535         105.973         -39.4535         105.973       -0.0377977         138.896
0.662                     -3.804         164.268         -39.4253         104.519         -39.4253         104.518       -0.0382593         138.801
0.663                   -3.76253         162.818          -39.394          103.08          -39.394         103.079       -0.0387309         138.705
0.664                   -3.72582         161.347         -39.3596         101.654         -39.3597         101.654       -0.0392129         138.609
0.665                    -3.6937         159.856         -39.3221         100.242         -39.3222         100.241       -0.0397055         138.512
0.666                   -3.66602         158.343         -39.2814         98.8405         -39.2815         98.8401       -0.0402089         138.415
0.667                   -3.64266         156.808         -39.2376         97.4492         -39.2376         97.4488       -0.0407235         138.318
0.668                   -3.62348         155.252         -39.1905         96.0665         -39.1905         96.0662       -0.0412494          138.22
0.669                    -3.6084         153.673         -39.1402         94.6913         -39.1403          94.691       -0.0417871         138.121
0.67                    -3.59733         152.072         -39.0867         93.3223         -39.0868         93.3221       -0.0423368         138.022
0.671                   -3.59018         150.448           -39.03         91.9583         -39.0301         91.9581       -0.0428987         137.922
0.672                    -3.5869           148.8         -38.9702         90.5981         -38.9702         90.5979       -0.0434732         137.822
0.673                   -3.58744         147.128         -38.9071         89.2404         -38.9071         89.2403       -0.0440606         137.722
0.674                   -3.59175          145.43         -38.8409         87.8842         -38.8409         87.8842       -0.0446612         137.621
0.675                   -3.59982         143.707         -38.7716         86.5283         -38.7716         86.5283       -0.0452754         137.519
0.676                   -3.61162         141.956         -38.6992         85.1716         -38.6992         85.1716       -0.0459033         137.417
0.677                   -3.62716         140.177         -38.6238         83.8129         -38.6238         83.8129       -0.0465455         137.314
0.678                   -3.64644         138.369         -38.5454         82.4511         -38.5454         82.4512       -0.0472022         137.211
0.679                   -3.66947         136.531          -38.464         81.0852         -38.4641         81.0853       -0.0478738         137.107
0.68                    -3.69628         134.662         -38.3798         79.7142         -38.3799         79.7143       -0.0485606         137.003
0.681                   -3.72691          132.76         -38.2928         78.3368         -38.2928         78.3369       -0.0492631         136.898
0.682                    -3.7614         130.824         -38.2031         76.9522         -38.2031         76.9523       -0.0499816         136.793
0.683                   -3.79981         128.853         -38.1107         75.5593         -38.1107         75.5594       -0.0507165         136.687
0.684                    -3.8422         126.845         -38.0158         74.1571         -38.0158         74.1573       -0.0514683          136.58
0.685                   -3.88865         124.799         -37.9184         72.7446         -37.9184         72.7448       -0.0522373         136.473
0.686                   -3.93923         122.713         -37.8187          71.321         -37.8187         71.3212        -0.053024         136.365
0.687                   -3.99403         120.586         -37.7167         69.8852         -37.7167         69.8854       -0.0538288         136.256
0.688                   -4.05316         118.415         -37.6126         68.4364         -37.6125         68.4366       -0.0546521         136.147
0.689                    -4.1167         116.199         -37.5064         66.9737         -37.5064          66.974       -0.0554944         136.037
0.69                    -4.18477         113.936         -37.3984         65.4964         -37.3984         65.4966       -0.0563562         135.926
0.691                   -4.25749         111.624         -37.2887         64.0035         -37.2886         64.0038       -0.0572378         135.815
0.692                   -4.33497         109.261         -37.1773         62.4944         -37.1773         62.4947       -0.0581397         135.703
0.693                   -4.41734         106.844         -37.0646         60.9684         -37.0645         60.9686       -0.0590624         135.591
0.694                   -4.50471         104.372         -36.9505         59.4248         -36.9505          59.425       -0.0600063         135.477
0.695                   -4.59721         101.841         -36.8354         57.8631         -36.8354         57.8633       -0.0609719         135.363
0.696                   -4.69497           99.25         -36.7194         56.2826         -36.7193         56.2828       -0.0619595         135.249