! TOUCHSTONE file generated by CST MICROWAVE STUDIO
! Date and time: Sat Nov 14 19:59:52 2020
! Project name: Scenario_1_Planar_Body_Tissue_Out_of_Line.cst
! Parameters = {dy1=155.7; L_HA=400; Ltissue=700; MT=2.54; Rad_Dielectric=30; Rad_Lower=7.3; Rad_Upper=30; Wtissue=700; a_HA=580; a_WG=246; b_HA=500; b_WG=121; c_HA=0; c_WG=187; d_feed=85; dx1=693; h_feed=15; h_lower=18; h_upper=40; hfat=3; hgap=25; hmuscle=50; hskin=1.5}
! Header version: 2018
! Port assignment regex: !\s*Touchstone port\s*([0-9]+)\s*=\s*(CST MWS port|CST DS port)\s*([0-9]+|Zmin|Zmax)\s*\(\"(.*)\"\)(\s*mode\s*([0-9]+))?.*
! Touchstone port assignment:
! Touchstone port 1 = CST MWS port 1 ("")
! Touchstone port 2 = CST MWS port 2 ("")
# GHz S DB R 50
0.5                    -0.193703        -121.591         -61.7978         -176.33         -61.7972        -176.326      -0.00776251         151.155
0.501                  -0.195378        -122.005         -61.6815        -178.183          -61.682        -178.181      -0.00782429          151.09
0.502                  -0.197095        -122.422         -61.5676         179.952         -61.5691         179.953      -0.00788664         151.025
0.503                  -0.198858        -122.842         -61.4562         178.077         -61.4587         178.078      -0.00794958          150.96
0.504                  -0.200671        -123.265         -61.3473         176.195         -61.3507         176.196       -0.0080131         150.894
0.505                  -0.202538        -123.691          -61.241         174.306         -61.2453         174.308      -0.00807723         150.829
0.506                  -0.204462         -124.12         -61.1373         172.414         -61.1425         172.417      -0.00814195         150.763
0.507                  -0.206449        -124.552         -61.0363         170.519         -61.0423         170.524       -0.0082073         150.698
0.508                  -0.208502        -124.988         -60.9379         168.624         -60.9446         168.631      -0.00827326         150.632
0.509                  -0.210626        -125.427         -60.8421         166.732         -60.8495          166.74      -0.00833985         150.566
0.51                   -0.212826        -125.869         -60.7488         164.843         -60.7568         164.853      -0.00840708         150.501
0.511                  -0.215108        -126.314          -60.658          162.96         -60.6664         162.973      -0.00847496         150.435
0.512                  -0.217476        -126.763         -60.5694         161.084         -60.5783         161.101       -0.0085435         150.369
0.513                  -0.219938        -127.216         -60.4829         159.219         -60.4922         159.238       -0.0086127         150.303
0.514                  -0.222498        -127.672         -60.3985         157.365         -60.4081         157.388      -0.00868257         150.236
0.515                  -0.225164        -128.132         -60.3158         155.525         -60.3256          155.55      -0.00875313          150.17
0.516                  -0.227942        -128.595         -60.2346           153.7         -60.2446         153.728      -0.00882439         150.104
0.517                  -0.230839        -129.063         -60.1548         151.891         -60.1648         151.922      -0.00889634         150.037
0.518                  -0.233865        -129.534          -60.076         150.099          -60.086         150.134      -0.00896901         149.971
0.519                  -0.237026        -130.009         -59.9979         148.327         -60.0079         148.365       -0.0090424         149.904
0.52                   -0.240331        -130.488         -59.9203         146.575         -59.9301         146.616      -0.00911653         149.838
0.521                  -0.243791        -130.972         -59.8429         144.844         -59.8525         144.887       -0.0091914         149.771
0.522                  -0.247414        -131.459         -59.7652         143.135         -59.7746          143.18      -0.00926703         149.704
0.523                  -0.251212        -131.951         -59.6871         141.448         -59.6962         141.495      -0.00934343         149.637
0.524                  -0.255196        -132.447         -59.6082         139.783          -59.617         139.833      -0.00942061          149.57
0.525                  -0.259378        -132.948         -59.5282         138.141         -59.5365         138.192      -0.00949858         149.503
0.526                   -0.26377        -133.453         -59.4466         136.522         -59.4546         136.574      -0.00957736         149.436
0.527                  -0.268388        -133.963         -59.3633         134.925         -59.3708         134.978      -0.00965695         149.368
0.528                  -0.273244        -134.478         -59.2778          133.35         -59.2849         133.405      -0.00973738         149.301
0.529                  -0.278356        -134.998         -59.1899         131.798         -59.1965         131.852      -0.00981865         149.233
0.53                    -0.28374        -135.522         -59.0993         130.266         -59.1053         130.321      -0.00990078         149.166
0.531                  -0.289415        -136.052         -59.0056         128.754         -59.0111         128.809      -0.00998379         149.098
0.532                    -0.2954        -136.587         -58.9085         127.262         -58.9136         127.316       -0.0100677          149.03
0.533                  -0.301715        -137.127         -58.8079         125.788         -58.8125         125.842       -0.0101525         148.962
0.534                  -0.308385        -137.673         -58.7033         124.332         -58.7074         124.384       -0.0102382         148.894
0.535                  -0.315432        -138.224         -58.5947         122.891         -58.5983         122.942       -0.0103249         148.826
0.536                  -0.322884        -138.781         -58.4816         121.464         -58.4848         121.514       -0.0104125         148.758
0.537                  -0.330769        -139.344          -58.364          120.05         -58.3668         120.098       -0.0105011          148.69
0.538                  -0.339117        -139.913         -58.2415         118.648         -58.2439         118.694       -0.0105907         148.621
0.539                  -0.347961        -140.488         -58.1141         117.255         -58.1161         117.299       -0.0106814         148.553
0.54                   -0.357337        -141.069         -57.9815          115.87         -57.9831         115.912        -0.010773         148.484
0.541                  -0.367284        -141.657         -57.8435         114.491         -57.8448         114.531       -0.0108658         148.416
0.542                  -0.377843        -142.251         -57.7001         113.116         -57.7011         113.154       -0.0109596         148.347
0.543                   -0.38906        -142.852          -57.551         111.743         -57.5517         111.779       -0.0110545         148.278
0.544                  -0.400984         -143.46         -57.3962         110.371         -57.3967         110.404       -0.0111506         148.209
0.545                  -0.413668        -144.074         -57.2355         108.996         -57.2358         109.027       -0.0112479          148.14
0.546                  -0.427169        -144.696          -57.069         107.618          -57.069         107.646       -0.0113463          148.07
0.547                  -0.441552        -145.325         -56.8964         106.233         -56.8962         106.259        -0.011446         148.001
0.548                  -0.456883        -145.961         -56.7177         104.839         -56.7174         104.863        -0.011547         147.931
0.549                  -0.473237        -146.605         -56.5329         103.435         -56.5326         103.456       -0.0116493         147.862
0.55                   -0.490694        -147.257          -56.342         102.017         -56.3416         102.036       -0.0117529         147.792
0.551                  -0.509342        -147.916          -56.145         100.583         -56.1445         100.601       -0.0118579         147.722
0.552                  -0.529275        -148.582         -55.9418         99.1318         -55.9412         99.1473       -0.0119644         147.652
0.553                  -0.550596        -149.257         -55.7325         97.6595         -55.7319         97.6731       -0.0120724         147.582
0.554                  -0.573417        -149.939         -55.5171         96.1638         -55.5165         96.1756       -0.0121819         147.512
0.555                   -0.59786        -150.629         -55.2958         94.6422         -55.2952         94.6523        -0.012293         147.442
0.556                  -0.624055        -151.326         -55.0685         93.0918         -55.0679         93.1004       -0.0124057         147.371
0.557                  -0.652144        -152.031         -54.8354         91.5099         -54.8348          91.517       -0.0125202         147.301
0.558                   -0.68228        -152.744         -54.5966         89.8935          -54.596         89.8993       -0.0126365          147.23
0.559                  -0.714627        -153.463         -54.3522         88.2398         -54.3517         88.2445       -0.0127547         147.159
0.56                   -0.749363        -154.188         -54.1025         86.5457         -54.1021         86.5493       -0.0128749         147.088
0.561                  -0.786676         -154.92         -53.8477         84.8082         -53.8473         84.8109       -0.0129971         147.017
0.562                  -0.826766        -155.656          -53.588         83.0241         -53.5877         83.0259       -0.0131214         146.946
0.563                  -0.869846        -156.398         -53.3237         81.1902         -53.3235         81.1913        -0.013248         146.875
0.564                  -0.916136        -157.142         -53.0552         79.3033          -53.055         79.3039       -0.0133769         146.803
0.565                  -0.965867        -157.889         -52.7828         77.3601         -52.7826         77.3603       -0.0135083         146.732
0.566                   -1.01928        -158.636          -52.507         75.3575         -52.5069         75.3572       -0.0136423          146.66
0.567                    -1.0766        -159.382         -52.2282         73.2921         -52.2282         73.2916        -0.013779         146.588
0.568                   -1.13806        -160.124         -51.9471         71.1609         -51.9471         71.1602       -0.0139185         146.516
0.569                   -1.20389         -160.86         -51.6642         68.9607         -51.6642         68.9599        -0.014061         146.444
0.57                    -1.27429        -161.587         -51.3802         66.6887         -51.3802         66.6879       -0.0142065         146.371
0.571                   -1.34942        -162.301         -51.0959         64.3423          -51.096         64.3415       -0.0143552         146.299
0.572                    -1.4294        -162.999         -50.8121         61.9191         -50.8122         61.9184       -0.0145073         146.226
0.573                   -1.51429        -163.675         -50.5298         59.4171         -50.5299         59.4166       -0.0146628         146.154
0.574                   -1.60404        -164.325           -50.25          56.835         -50.2501         56.8346       -0.0148218         146.081
0.575                   -1.69851        -164.943         -49.9736         54.1718         -49.9737         54.1715       -0.0149844         146.008
0.576                   -1.79742        -165.523         -49.7019         51.4274          -49.702         51.4273       -0.0151506         145.935
0.577                   -1.90029         -166.06         -49.4361         48.6024         -49.4361         48.6024       -0.0153205         145.861
0.578                    -2.0065        -166.546         -49.1773         45.6985         -49.1773         45.6986        -0.015494         145.788
0.579                   -2.11516        -166.976         -48.9268         42.7182         -48.9267         42.7185       -0.0156711         145.714
0.58                    -2.22517        -167.345         -48.6858         39.6653         -48.6857         39.6656       -0.0158517         145.641
0.581                   -2.33518        -167.647         -48.4556         36.5446         -48.4554         36.5449       -0.0160355         145.567
0.582                   -2.44363        -167.879         -48.2372         33.3621         -48.2371         33.3624       -0.0162225         145.493
0.583                   -2.54874        -168.041         -48.0319         30.1251         -48.0316         30.1253       -0.0164123         145.419
0.584                   -2.64861        -168.132         -47.8403         26.8416           -47.84         26.8417       -0.0166047         145.344
0.585                   -2.74129        -168.157         -47.6634         23.5209         -47.6631         23.5208       -0.0167993          145.27
0.586                   -2.82487        -168.121         -47.5016         20.1728         -47.5013         20.1725       -0.0169958         145.196
0.587                   -2.89762        -168.035         -47.3554         16.8076         -47.3551         16.8071       -0.0171938         145.121
0.588                   -2.95808        -167.909         -47.2249         13.4361         -47.2245         13.4353        -0.017393         145.046
0.589                   -3.00519        -167.759           -47.11         10.0688         -47.1096         10.0679        -0.017593         144.971
0.59                    -3.03836        -167.598         -47.0104         6.71619           -47.01         6.71503       -0.0177934         144.896
0.591                   -3.05749        -167.442         -46.9256         3.38811         -46.9252         3.38674       -0.0179941         144.821
0.592                   -3.06297        -167.307         -46.8549       0.0936606         -46.8545       0.0921195       -0.0181948         144.745
0.593                   -3.05564        -167.206         -46.7973        -3.15894          -46.797        -3.16062       -0.0183954         144.669
0.594                    -3.0367        -167.151         -46.7521        -6.36253         -46.7517         -6.3643       -0.0185957         144.594
0.595                   -3.00761        -167.153         -46.7179        -9.51107         -46.7176        -9.51289       -0.0187958         144.518
0.596                      -2.97        -167.217         -46.6938        -12.5997         -46.6936        -12.6015       -0.0189956         144.442
0.597                   -2.92554        -167.349         -46.6785        -15.6247         -46.6783        -15.6264       -0.0191952         144.365
0.598                   -2.87587        -167.552         -46.6709        -18.5833         -46.6707         -18.585       -0.0193948         144.289
0.599                   -2.82255        -167.825         -46.6698        -21.4741         -46.6697        -21.4756       -0.0195945         144.212
0.6                     -2.76699        -168.169         -46.6741        -24.2961          -46.674        -24.2974       -0.0197946         144.135
0.601                   -2.71043         -168.58         -46.6826        -27.0496         -46.6826        -27.0506       -0.0199952         144.058
0.602                   -2.65394        -169.055         -46.6945        -29.7352         -46.6945         -29.736       -0.0201966         143.981
0.603                   -2.59841        -169.592         -46.7088        -32.3545         -46.7088        -32.3549       -0.0203989         143.903
0.604                   -2.54459        -170.185         -46.7246         -34.909         -46.7246        -34.9091       -0.0206026         143.825
0.605                   -2.49305        -170.832         -46.7412        -37.4012         -46.7412        -37.4009       -0.0208077         143.748
0.606                   -2.44426        -171.528         -46.7579        -39.8334         -46.7579        -39.8328       -0.0210145         143.669
0.607                   -2.39856        -172.269          -46.774        -42.2085         -46.7741        -42.2074       -0.0212233         143.591
0.608                   -2.35621        -173.053          -46.789        -44.5291         -46.7891        -44.5277       -0.0214342         143.512
0.609                    -2.3174        -173.875         -46.8025        -46.7984         -46.8025        -46.7966       -0.0216474         143.434
0.61                    -2.28225        -174.733         -46.8139        -49.0192         -46.8139         -49.017       -0.0218632         143.355
0.611                   -2.25085        -175.624          -46.823        -51.1946          -46.823        -51.1921       -0.0220816         143.275
0.612                   -2.22322        -176.546         -46.8293        -53.3276         -46.8294        -53.3248        -0.022303         143.196
0.613                   -2.19941        -177.497         -46.8328        -55.4212         -46.8328        -55.4179       -0.0225273         143.116
0.614                    -2.1794        -178.475          -46.833        -57.4781          -46.833        -57.4746       -0.0227548         143.036
0.615                    -2.1632        -179.479         -46.8299        -59.5012         -46.8298        -59.4974       -0.0229857         142.956
0.616                   -2.15077         179.493         -46.8232        -61.4933         -46.8231        -61.4892       -0.0232199         142.876
0.617                   -2.14213         178.442         -46.8129         -63.457         -46.8127        -63.4527       -0.0234577         142.795
0.618                   -2.13723         177.368         -46.7988        -65.3948         -46.7986        -65.3903       -0.0236992         142.714
0.619                   -2.13609         176.273         -46.7809        -67.3093         -46.7807        -67.3045       -0.0239445         142.633
0.62                    -2.13869         175.157         -46.7591        -69.2027         -46.7588        -69.1978       -0.0241937         142.552
0.621                   -2.14505          174.02         -46.7334        -71.0774         -46.7331        -71.0724       -0.0244468          142.47
0.622                   -2.15518         172.862         -46.7038        -72.9355         -46.7034        -72.9305       -0.0247041         142.388
0.623                    -2.1691         171.685         -46.6702        -74.7793         -46.6698        -74.7742       -0.0249655         142.306
0.624                   -2.18686         170.488         -46.6327        -76.6107         -46.6323        -76.6056       -0.0252313         142.224
0.625                   -2.20851         169.271         -46.5914        -78.4317         -46.5909        -78.4266       -0.0255014         142.141
0.626                   -2.23412         168.034         -46.5462        -80.2441         -46.5456        -80.2391        -0.025776         142.058
0.627                   -2.26377         166.777         -46.4971        -82.0499         -46.4966        -82.0449       -0.0260552         141.975
0.628                   -2.29754           165.5         -46.4444        -83.8507         -46.4438        -83.8459        -0.026339         141.892
0.629                   -2.33556         164.204          -46.388        -85.6483         -46.3873        -85.6436       -0.0266276         141.808
0.63                    -2.37795         162.886          -46.328        -87.4443         -46.3273        -87.4397       -0.0269211         141.724
0.631                   -2.42486         161.549         -46.2645        -89.2402         -46.2638        -89.2358       -0.0272195          141.64
0.632                   -2.47645         160.191         -46.1976        -91.0376         -46.1968        -91.0335        -0.027523         141.555
0.633                    -2.5329         158.812         -46.1274        -92.8379         -46.1266         -92.834       -0.0278316          141.47
0.634                    -2.5944         157.413          -46.054        -94.6426         -46.0532         -94.639       -0.0281455         141.385
0.635                   -2.66119         155.992         -45.9776         -96.453         -45.9768        -96.4497       -0.0284647           141.3
0.636                   -2.73349          154.55         -45.8983        -98.2703         -45.8974        -98.2673       -0.0287894         141.214
0.637                   -2.81158         153.087         -45.8161        -100.096         -45.8153        -100.093       -0.0291196         141.128
0.638                   -2.89574         151.603         -45.7314        -101.931         -45.7305        -101.929       -0.0294555         141.042
0.639                   -2.98628         150.097         -45.6442        -103.777         -45.6433        -103.775       -0.0297971         140.955
0.64                    -3.08353         148.569         -45.5546        -105.634         -45.5538        -105.632       -0.0301447         140.868
0.641                   -3.18785         147.021          -45.463        -107.504         -45.4621        -107.503       -0.0304981         140.781
0.642                   -3.29964         145.452         -45.3694        -109.387         -45.3686        -109.386       -0.0308577         140.694
0.643                   -3.41931         143.861          -45.274        -111.285         -45.2732        -111.285       -0.0312235         140.606
0.644                   -3.54732         142.251         -45.1772        -113.199         -45.1764        -113.198       -0.0315956         140.517
0.645                   -3.68414         140.621         -45.0789        -115.128         -45.0782        -115.128       -0.0319741         140.429
0.646                   -3.83029         138.973         -44.9796        -117.074         -44.9789        -117.074       -0.0323591          140.34
0.647                   -3.98633         137.306         -44.8794        -119.036         -44.8787        -119.037       -0.0327508         140.251
0.648                   -4.15284         135.623         -44.7785        -121.017         -44.7779        -121.018       -0.0331493         140.161
0.649                   -4.33046         133.924         -44.6772        -123.015         -44.6766        -123.016       -0.0335547         140.071
0.65                    -4.51986         132.211         -44.5758        -125.031         -44.5752        -125.033       -0.0339671         139.981
0.651                   -4.72176         130.486         -44.4744        -127.066         -44.4738        -127.067       -0.0343866          139.89
0.652                   -4.93694         128.752         -44.3733        -129.118         -44.3728         -129.12       -0.0348134         139.799
0.653                   -5.16623         127.011         -44.2728        -131.189         -44.2724         -131.19       -0.0352477         139.708
0.654                   -5.41049         125.265         -44.1732        -133.277         -44.1728        -133.279       -0.0356894         139.616
0.655                   -5.67069         123.519         -44.0746        -135.382         -44.0743        -135.384       -0.0361388         139.524
0.656                   -5.94784         121.777         -43.9774        -137.504         -43.9771        -137.506        -0.036596         139.432
0.657                   -6.24303         120.044         -43.8817        -139.641         -43.8815        -139.644       -0.0370611         139.339
0.658                   -6.55743         118.324         -43.7879        -141.794         -43.7877        -141.796       -0.0375342         139.245
0.659                   -6.89233         116.624         -43.6961        -143.961         -43.6959        -143.963       -0.0380156         139.152
0.66                    -7.24909         114.953         -43.6065         -146.14         -43.6064        -146.142       -0.0385052         139.057
0.661                   -7.62923         113.317         -43.5193        -148.331         -43.5193        -148.333       -0.0390034         138.963
0.662                   -8.03437         111.729         -43.4348        -150.532         -43.4348        -150.534       -0.0395102         138.868
0.663                   -8.46629         110.198          -43.353        -152.742         -43.3531        -152.744       -0.0400258         138.773
0.664                   -8.92697         108.741         -43.2742        -154.959         -43.2743         -154.96       -0.0405503         138.677
0.665                   -9.41853         107.373         -43.1984        -157.181         -43.1985        -157.182       -0.0410838          138.58
0.666                   -9.94334         106.116         -43.1257        -159.407         -43.1259        -159.408       -0.0416267         138.484
0.667                    -10.504         104.994         -43.0562        -161.634         -43.0564        -161.635       -0.0421789         138.387
0.668                   -11.1032         104.039           -42.99        -163.861         -42.9901        -163.862       -0.0427408         138.289
0.669                   -11.7439         103.289          -42.927        -166.087         -42.9271        -166.087       -0.0433124         138.191
0.67                    -12.4292         102.794         -42.8672        -168.308         -42.8674        -168.308        -0.043894         138.092
0.671                    -13.162         102.616         -42.8106        -170.524         -42.8108        -170.524       -0.0444857         137.993
0.672                   -13.9446         102.834         -42.7572        -172.732         -42.7574        -172.732       -0.0450877         137.894
0.673                   -14.7779         103.555         -42.7068        -174.931          -42.707         -174.93       -0.0457003         137.794
0.674                   -15.6603         104.911         -42.6594        -177.118         -42.6595        -177.118       -0.0463237         137.693
0.675                   -16.5846         107.073         -42.6147        -179.293         -42.6149        -179.293        -0.046958         137.592
0.676                   -17.5342          110.25         -42.5728         178.546         -42.5729         178.546       -0.0476036          137.49
0.677                   -18.4761         114.671         -42.5333           176.4         -42.5334         176.401       -0.0482606         137.388
0.678                   -19.3538         120.535         -42.4961         174.272         -42.4962         174.272       -0.0489294         137.286
0.679                   -20.0832         127.892         -42.4609         172.161          -42.461         172.162       -0.0496101         137.182
0.68                    -20.5654         136.485         -42.4277         170.069         -42.4278          170.07        -0.050303         137.079
0.681                   -20.7231         145.662         -42.3962         167.997         -42.3962         167.998       -0.0510085         136.974
0.682                   -20.5444          154.54          -42.366         165.946          -42.366         165.947       -0.0517269         136.869
0.683                     -20.09         162.367         -42.3371         163.916         -42.3371         163.917       -0.0524583         136.764
0.684                   -19.4567         168.766         -42.3092         161.908         -42.3091         161.909       -0.0532033         136.658
0.685                   -18.7351          173.71          -42.282         159.922         -42.2819         159.922       -0.0539621         136.551
0.686                   -17.9898         177.367         -42.2552         157.958         -42.2552         157.958        -0.054735         136.444
0.687                   -17.2597         179.964         -42.2288         156.016         -42.2287         156.017       -0.0555225         136.336
0.688                   -16.5653        -178.282         -42.2024         154.097         -42.2023         154.098       -0.0563249         136.227
0.689                   -15.9156        -177.192         -42.1759         152.201         -42.1758         152.201       -0.0571426         136.118
0.69                    -15.3136        -176.623         -42.1489         150.326         -42.1488         150.326        -0.057976         136.008
0.691                   -14.7585        -176.463         -42.1214         148.473         -42.1213         148.473       -0.0588256         135.897
0.692                    -14.248        -176.629         -42.0931         146.642          -42.093         146.642       -0.0596918         135.786
0.693                   -13.7793        -177.055         -42.0638         144.831         -42.0637         144.831        -0.060575         135.674
0.694                   -13.3491        -177.691         -42.0333         143.042         -42.0332         143.041       -0.0614758         135.561
0.695                   -12.9543        -178.498         -42.0015         141.272         -42.0014         141.271       -0.0623946         135.447
0.696                    -12.592        -179.446         -41.9682         139.521         -41.9681          139.52       -0.0633319         135.333