! TOUCHSTONE file generated by CST MICROWAVE STUDIO
! Date and time: Sat Nov 14 19:59:59 2020
! Project name: Scenario_1_Planar_Body_Tissue_Out_of_Line.cst
! Parameters = {dy1=138.4; L_HA=400; Ltissue=700; MT=2.54; Rad_Dielectric=30; Rad_Lower=7.3; Rad_Upper=30; Wtissue=700; a_HA=580; a_WG=246; b_HA=500; b_WG=121; c_HA=0; c_WG=187; d_feed=85; dx1=693; h_feed=15; h_lower=18; h_upper=40; hfat=3; hgap=25; hmuscle=50; hskin=1.5}
! Header version: 2018
! Port assignment regex: !\s*Touchstone port\s*([0-9]+)\s*=\s*(CST MWS port|CST DS port)\s*([0-9]+|Zmin|Zmax)\s*\(\"(.*)\"\)(\s*mode\s*([0-9]+))?.*
! Touchstone port assignment:
! Touchstone port 1 = CST MWS port 1 ("")
! Touchstone port 2 = CST MWS port 2 ("")
# GHz S DB R 50
0.5                    -0.196303        -121.592         -61.6122        -175.188          -61.612        -175.189      -0.00777568         151.155
0.501                  -0.198016        -122.005         -61.4574        -177.004         -61.4568        -177.006      -0.00783787          151.09
0.502                  -0.199757        -122.421         -61.3071        -178.864         -61.3062        -178.868      -0.00790058         151.025
0.503                   -0.20153        -122.841         -61.1619         179.235         -61.1608         179.229      -0.00796382         150.959
0.504                   -0.20334        -123.263         -61.0226         177.296         -61.0211         177.289      -0.00802761         150.894
0.505                  -0.205189        -123.688         -60.8896         175.325         -60.8879         175.315      -0.00809195         150.829
0.506                  -0.207082        -124.116         -60.7635         173.326         -60.7616         173.314      -0.00815684         150.763
0.507                  -0.209022        -124.548         -60.6446         171.304         -60.6426          171.29       -0.0082223         150.697
0.508                  -0.211015        -124.982         -60.5333         169.267         -60.5313         169.251      -0.00828834         150.632
0.509                  -0.213065         -125.42         -60.4296          167.22         -60.4277         167.201      -0.00835497         150.566
0.51                   -0.215177        -125.862         -60.3338         165.169         -60.3319         165.149      -0.00842219           150.5
0.511                  -0.217356        -126.306         -60.2456         163.123         -60.2437         163.101      -0.00849001         150.434
0.512                  -0.219608        -126.754         -60.1648         161.087         -60.1631         161.063      -0.00855845         150.368
0.513                  -0.221939        -127.206          -60.091         159.067         -60.0895         159.042      -0.00862752         150.302
0.514                  -0.224354        -127.661         -60.0237         157.071         -60.0224         157.045      -0.00869722         150.236
0.515                  -0.226861         -128.12         -59.9623         155.103         -59.9612         155.076      -0.00876756          150.17
0.516                  -0.229466        -128.583         -59.9061         153.168         -59.9052         153.141      -0.00883856         150.103
0.517                  -0.232177        -129.049         -59.8542          151.27         -59.8535         151.243      -0.00891023         150.037
0.518                  -0.235001         -129.52         -59.8057         149.413         -59.8053         149.386      -0.00898258          149.97
0.519                  -0.237948        -129.994         -59.7599         147.599         -59.7597         147.572      -0.00905562         149.904
0.52                   -0.241025        -130.472         -59.7157          145.83         -59.7158         145.803      -0.00912936         149.837
0.521                  -0.244243        -130.955         -59.6724         144.106         -59.6726          144.08      -0.00920382          149.77
0.522                  -0.247611        -131.442         -59.6289         142.428         -59.6293         142.403      -0.00927901         149.703
0.523                  -0.251141        -131.933         -59.5844         140.795          -59.585         140.772      -0.00935493         149.636
0.524                  -0.254843        -132.429         -59.5382         139.207         -59.5389         139.185      -0.00943162         149.569
0.525                  -0.258731        -132.929         -59.4895         137.661         -59.4903          137.64      -0.00950907         149.502
0.526                  -0.262817        -133.434         -59.4375         136.156         -59.4384         136.137       -0.0095873         149.435
0.527                  -0.267115        -133.943         -59.3817          134.69         -59.3827         134.672      -0.00966634         149.367
0.528                  -0.271641        -134.458         -59.3216         133.259         -59.3226         133.243      -0.00974619           149.3
0.529                   -0.27641        -134.977         -59.2565         131.861         -59.2575         131.847      -0.00982686         149.233
0.53                   -0.281441        -135.501         -59.1861         130.494         -59.1872          130.48      -0.00990839         149.165
0.531                  -0.286751        -136.031           -59.11         129.153          -59.111         129.141      -0.00999078         149.097
0.532                   -0.29236        -136.566         -59.0279         127.836         -59.0289         127.825       -0.0100741         149.029
0.533                  -0.298292        -137.107         -58.9395          126.54         -58.9404          126.53       -0.0101582         148.961
0.534                  -0.304567        -137.653         -58.8446         125.262         -58.8455         125.253       -0.0102433         148.893
0.535                  -0.311212        -138.205          -58.743         123.998         -58.7438          123.99       -0.0103293         148.825
0.536                  -0.318254        -138.762         -58.6346         122.745         -58.6353         122.739       -0.0104163         148.757
0.537                  -0.325721        -139.326         -58.5192         121.502         -58.5199         121.496       -0.0105043         148.689
0.538                  -0.333645        -139.896         -58.3969         120.264         -58.3975         120.259       -0.0105933          148.62
0.539                   -0.34206        -140.472         -58.2675         119.029         -58.2681         119.025       -0.0106833         148.552
0.54                   -0.351003        -141.055         -58.1311         117.795         -58.1316         117.791       -0.0107744         148.483
0.541                  -0.360514        -141.644         -57.9876         116.558          -57.988         116.555       -0.0108665         148.414
0.542                  -0.370635         -142.24         -57.8371         115.317         -57.8374         115.315       -0.0109598         148.346
0.543                  -0.381415        -142.843         -57.6796         114.069         -57.6798         114.067       -0.0110542         148.277
0.544                  -0.392902        -143.453         -57.5151         112.812         -57.5153          112.81       -0.0111498         148.208
0.545                  -0.405153         -144.07         -57.3437         111.543         -57.3438         111.542       -0.0112466         148.138
0.546                  -0.418228        -144.695         -57.1655          110.26         -57.1655         110.259       -0.0113446         148.069
0.547                  -0.432191        -145.327         -56.9805         108.962         -56.9805         108.961       -0.0114439             148
0.548                  -0.447113        -145.966         -56.7889         107.645         -56.7888         107.644       -0.0115445          147.93
0.549                  -0.463072        -146.614         -56.5906         106.308         -56.5904         106.307       -0.0116465          147.86
0.55                   -0.480151        -147.269         -56.3858         104.948         -56.3856         104.948       -0.0117498         147.791
0.551                   -0.49844        -147.933         -56.1747         103.565         -56.1744         103.564       -0.0118546         147.721
0.552                   -0.51804        -148.604         -55.9572         102.154          -55.957         102.154       -0.0119609         147.651
0.553                  -0.539057        -149.284         -55.7336         100.715         -55.7333         100.715       -0.0120688         147.581
0.554                  -0.561609        -149.971         -55.5039          99.245         -55.5036         99.2447       -0.0121783          147.51
0.555                  -0.585823        -150.667         -55.2684         97.7419          -55.268         97.7416       -0.0122894          147.44
0.556                  -0.611837        -151.371          -55.027         96.2034         -55.0267          96.203       -0.0124023          147.37
0.557                  -0.639799        -152.083         -54.7801         94.6271         -54.7798         94.6267       -0.0125169         147.299
0.558                  -0.669873        -152.802         -54.5278         93.0108         -54.5274         93.0103       -0.0126335         147.228
0.559                  -0.702231        -153.529         -54.2702         91.3518         -54.2698         91.3513        -0.012752         147.157
0.56                   -0.737061        -154.262         -54.0076         89.6477         -54.0073         89.6472       -0.0128725         147.086
0.561                  -0.774564        -155.002         -53.7403         87.8959         -53.7399         87.8953       -0.0129952         147.015
0.562                  -0.814953        -155.748         -53.4685         86.0935         -53.4681          86.093       -0.0131201         146.944
0.563                  -0.858456        -156.499         -53.1924          84.238         -53.1921         84.2374       -0.0132473         146.873
0.564                  -0.905311        -157.253         -52.9126         82.3264         -52.9122         82.3258        -0.013377         146.801
0.565                  -0.955764         -158.01         -52.6292         80.3559         -52.6289         80.3552       -0.0135092         146.729
0.566                   -1.01007        -158.768         -52.3429         78.3234         -52.3426         78.3227        -0.013644         146.658
0.567                   -1.06849        -159.525          -52.054         76.2262         -52.0537         76.2255       -0.0137816         146.586
0.568                   -1.13128        -160.278          -51.763         74.0614         -51.7628         74.0607       -0.0139222         146.514
0.569                   -1.19868        -161.025         -51.4707          71.826         -51.4705         71.8253       -0.0140657         146.441
0.57                    -1.27091        -161.763         -51.1777         69.5175         -51.1775         69.5168       -0.0142124         146.369
0.571                   -1.34817        -162.487         -50.8846         67.1332         -50.8845         67.1325       -0.0143624         146.297
0.572                   -1.43059        -163.194         -50.5924          64.671         -50.5923         64.6704       -0.0145158         146.224
0.573                   -1.51825        -163.879          -50.302         62.1289         -50.3019         62.1283       -0.0146727         146.151
0.574                   -1.61112        -164.537         -50.0143         59.5056         -50.0142          59.505       -0.0148332         146.078
0.575                   -1.70906         -165.16         -49.7303            56.8         -49.7303         56.7995       -0.0149973         146.005
0.576                   -1.81176        -165.744         -49.4513         54.0121         -49.4513         54.0116       -0.0151653         145.932
0.577                   -1.91877        -166.281         -49.1784         51.1423         -49.1783         51.1419        -0.015337         145.859
0.578                   -2.02938        -166.765         -48.9128         48.1921         -48.9128         48.1918       -0.0155125         145.785
0.579                   -2.14267        -167.188         -48.6558          45.164         -48.6558         45.1638       -0.0156918         145.711
0.58                    -2.25744        -167.545         -48.4086         42.0617         -48.4086         42.0615       -0.0158747         145.638
0.581                   -2.37223        -167.831         -48.1726         38.8898         -48.1726         38.8897       -0.0160613         145.564
0.582                   -2.48532        -168.042         -47.9488         35.6544         -47.9488         35.6543       -0.0162512          145.49
0.583                    -2.5948        -168.176         -47.7384         32.3626         -47.7384         32.3626       -0.0164443         145.416
0.584                   -2.69858        -168.235         -47.5424         29.0227         -47.5424         29.0227       -0.0166403         145.341
0.585                   -2.79451        -168.222         -47.3615         25.6439         -47.3615         25.6439       -0.0168389         145.267
0.586                   -2.88054        -168.145         -47.1964         22.2364         -47.1965         22.2363       -0.0170397         145.192
0.587                   -2.95477        -168.014         -47.0476         18.8107         -47.0476         18.8107       -0.0172424         145.117
0.588                   -3.01566        -167.842         -46.9151          15.378         -46.9151         15.3779       -0.0174466         145.042
0.589                   -3.06209        -167.644          -46.799         11.9493          -46.799         11.9492       -0.0176518         144.967
0.59                    -3.09347        -167.437         -46.6989         8.53557         -46.6989         8.53534       -0.0178577         144.892
0.591                   -3.10979        -167.238         -46.6144         5.14706         -46.6145         5.14675        -0.018064         144.817
0.592                   -3.11154        -167.063         -46.5448         1.79347         -46.5448         1.79307       -0.0182703         144.741
0.593                   -3.09974        -166.927         -46.4891        -1.51649         -46.4892        -1.51699       -0.0184765         144.666
0.594                   -3.07575        -166.843         -46.4465        -4.77518         -46.4465        -4.77578       -0.0186822          144.59
0.595                   -3.04123        -166.821         -46.4156        -7.97613         -46.4157        -7.97683       -0.0188874         144.514
0.596                   -2.99797        -166.867         -46.3954        -11.1141         -46.3955        -11.1149        -0.019092         144.438
0.597                    -2.9478        -166.986         -46.3847         -14.185         -46.3848        -14.1859       -0.0192961         144.361
0.598                    -2.8925        -167.181         -46.3821         -17.186         -46.3822         -17.187       -0.0194997         144.285
0.599                    -2.8337        -167.451         -46.3865        -20.1152         -46.3866        -20.1163        -0.019703         144.208
0.6                     -2.77291        -167.795         -46.3967        -22.9718         -46.3968        -22.9729       -0.0199061         144.131
0.601                   -2.71142         -168.21         -46.4116        -25.7557         -46.4117         -25.757       -0.0201093         144.054
0.602                   -2.65031        -168.692           -46.43        -28.4679         -46.4302        -28.4692       -0.0203127         143.977
0.603                   -2.59051        -169.237         -46.4511        -31.1096         -46.4513         -31.111       -0.0205167         143.899
0.604                   -2.53273        -169.841         -46.4739        -33.6827         -46.4741        -33.6841       -0.0207216         143.821
0.605                   -2.47757          -170.5         -46.4977        -36.1895         -46.4979         -36.191       -0.0209276         143.743
0.606                   -2.42546        -171.209         -46.5216        -38.6326         -46.5218        -38.6341       -0.0211349         143.665
0.607                   -2.37674        -171.964          -46.545        -41.0149         -46.5452        -41.0164       -0.0213439         143.587
0.608                   -2.33163        -172.762         -46.5673        -43.3393         -46.5676        -43.3408       -0.0215548         143.508
0.609                   -2.29031        -173.599         -46.5881         -45.609         -46.5884        -45.6105       -0.0217679         143.429
0.61                    -2.25288        -174.472         -46.6068         -47.827         -46.6071        -47.8285       -0.0219833          143.35
0.611                   -2.21939        -175.379          -46.623        -49.9966         -46.6233        -49.9981       -0.0222014         143.271
0.612                   -2.18988        -176.316         -46.6365        -52.1209         -46.6368        -52.1223       -0.0224222         143.191
0.613                   -2.16434        -177.283         -46.6469         -54.203         -46.6472        -54.2044       -0.0226461         143.112
0.614                   -2.14276        -178.276          -46.654        -56.2459         -46.6543        -56.2472       -0.0228731         143.032
0.615                   -2.12512        -179.295         -46.6576        -58.2526         -46.6579        -58.2538       -0.0231034         142.951
0.616                    -2.1114         179.661         -46.6574         -60.226         -46.6578        -60.2271       -0.0233372         142.871
0.617                   -2.10157         178.594         -46.6535        -62.1688         -46.6538        -62.1699       -0.0235747          142.79
0.618                   -2.09559         177.505         -46.6456        -64.0838         -46.6459        -64.0848       -0.0238158         142.709
0.619                   -2.09347         176.395         -46.6336        -65.9736          -46.634        -65.9745       -0.0240609         142.628
0.62                    -2.09518         175.263         -46.6176        -67.8406          -46.618        -67.8415         -0.02431         142.547
0.621                   -2.10072          174.11         -46.5974        -69.6874         -46.5978        -69.6882       -0.0245631         142.465
0.622                   -2.11012         172.938         -46.5731        -71.5163         -46.5735         -71.517       -0.0248205         142.383
0.623                   -2.12338         171.745         -46.5446        -73.3294          -46.545          -73.33       -0.0250822         142.301
0.624                   -2.14054         170.532         -46.5119        -75.1291         -46.5123        -75.1296       -0.0253483         142.218
0.625                   -2.16166           169.3         -46.4751        -76.9173         -46.4755        -76.9177       -0.0256189         142.136
0.626                    -2.1868         168.047         -46.4341        -78.6961         -46.4345        -78.6964       -0.0258941         142.053
0.627                   -2.21603         166.775         -46.3891        -80.4675         -46.3895        -80.4677       -0.0261739         141.969
0.628                   -2.24944         165.482         -46.3401        -82.2333         -46.3405        -82.2335       -0.0264586         141.886
0.629                   -2.28716         164.169         -46.2872        -83.9954         -46.2875        -83.9955       -0.0267481         141.802
0.63                    -2.32929         162.836         -46.2303        -85.7555         -46.2307        -85.7555       -0.0270426         141.718
0.631                   -2.37599         161.482         -46.1697        -87.5154         -46.1701        -87.5153       -0.0273421         141.634
0.632                   -2.42742         160.108         -46.1054        -89.2767         -46.1057        -89.2765       -0.0276467         141.549
0.633                   -2.48376         158.712         -46.0376        -91.0409         -46.0379        -91.0407       -0.0279566         141.464
0.634                    -2.5452         157.295         -45.9662        -92.8097         -45.9665        -92.8094       -0.0282717         141.379
0.635                   -2.61197         155.857         -45.8915        -94.5845         -45.8918        -94.5841       -0.0285923         141.293
0.636                   -2.68431         154.397         -45.8137        -96.3668         -45.8139        -96.3663       -0.0289183         141.207
0.637                   -2.76248         152.916         -45.7327        -98.1578          -45.733        -98.1573         -0.02925         141.121
0.638                   -2.84676         151.413         -45.6489        -99.9591         -45.6491        -99.9585       -0.0295873         141.035
0.639                   -2.93748         149.887         -45.5623        -101.772         -45.5625        -101.771       -0.0299303         140.948
0.64                    -3.03497          148.34         -45.4731        -103.597         -45.4733        -103.596       -0.0302793         140.861
0.641                   -3.13959         146.771         -45.3816        -105.436         -45.3818        -105.435       -0.0306342         140.774
0.642                   -3.25174         145.181         -45.2879         -107.29          -45.288        -107.289       -0.0309952         140.686
0.643                   -3.37184         143.569         -45.1922        -109.159         -45.1923        -109.159       -0.0313624         140.598
0.644                   -3.50034         141.935         -45.0947        -111.046         -45.0948        -111.045       -0.0317359          140.51
0.645                   -3.63774         140.282         -44.9957         -112.95         -44.9958        -112.949       -0.0321158         140.421
0.646                   -3.78457         138.608         -44.8955        -114.872         -44.8955        -114.871       -0.0325021         140.332
0.647                   -3.94138         136.915         -44.7941        -116.813         -44.7942        -116.812       -0.0328951         140.243
0.648                   -4.10878         135.204          -44.692        -118.773          -44.692        -118.772       -0.0332949         140.153
0.649                   -4.28742         133.477         -44.5893        -120.753         -44.5893        -120.753       -0.0337014         140.063
0.65                      -4.478         131.733         -44.4863        -122.753         -44.4863        -122.753        -0.034115         139.973
0.651                   -4.68125         129.977         -44.3834        -124.773         -44.3834        -124.773       -0.0345357         139.882
0.652                   -4.89799         128.208         -44.2807        -126.814         -44.2807        -126.813       -0.0349635         139.791
0.653                   -5.12906         126.431         -44.1786        -128.874         -44.1786        -128.874       -0.0353988         139.699
0.654                   -5.37539         124.647         -44.0774        -130.954         -44.0773        -130.954       -0.0358415         139.607
0.655                   -5.63797          122.86         -43.9772        -133.053         -43.9771        -133.053       -0.0362919         139.515
0.656                   -5.91787         121.075         -43.8784         -135.17         -43.8784         -135.17         -0.03675         139.422
0.657                   -6.21625         119.294         -43.7814        -137.305         -43.7813        -137.305       -0.0372161         139.329
0.658                   -6.53436         117.525         -43.6862        -139.457         -43.6861        -139.457       -0.0376902         139.236
0.659                   -6.87356         115.772         -43.5932        -141.625         -43.5931        -141.625       -0.0381725         139.142
0.66                    -7.23535         114.043         -43.5026        -143.806         -43.5025        -143.807       -0.0386632         139.047
0.661                   -7.62136         112.346         -43.4146        -146.001         -43.4145        -146.001       -0.0391624         138.953
0.662                   -8.03337         110.691         -43.3295        -148.207         -43.3294        -148.207       -0.0396703         138.858
0.663                   -8.47338          109.09         -43.2473        -150.422         -43.2472        -150.422       -0.0401871         138.762
0.664                   -8.94358         107.557         -43.1683        -152.645         -43.1682        -152.645       -0.0407129         138.666
0.665                   -9.44641         106.108         -43.0926        -154.873         -43.0925        -154.874        -0.041248          138.57
0.666                   -9.98461         104.764         -43.0202        -157.106         -43.0201        -157.106       -0.0417924         138.473
0.667                   -10.5612          103.55         -42.9512         -159.34         -42.9511         -159.34       -0.0423464         138.375
0.668                   -11.1796         102.498         -42.8857        -161.573         -42.8857        -161.574       -0.0429102         138.277
0.669                   -11.8435         101.647         -42.8237        -163.804         -42.8237        -163.805        -0.043484         138.179
0.67                    -12.5569         101.048         -42.7652        -166.031         -42.7651        -166.031       -0.0440679          138.08
0.671                   -13.3239         100.767           -42.71         -168.25           -42.71        -168.251       -0.0446623         137.981
0.672                   -14.1486         100.892         -42.6582        -170.461         -42.6581        -170.462       -0.0452673         137.881
0.673                   -15.0339         101.538         -42.6095        -172.662         -42.6095        -172.662       -0.0458831         137.781
0.674                   -15.9803         102.861         -42.5639         -174.85         -42.5639         -174.85         -0.04651          137.68
0.675                   -16.9829         105.064         -42.5213        -177.023         -42.5212        -177.024       -0.0471482         137.579
0.676                   -18.0256          108.41         -42.4813        -179.181         -42.4813        -179.182        -0.047798         137.477
0.677                   -19.0722         113.209         -42.4438         178.678         -42.4438         178.678       -0.0484596         137.375
0.678                   -20.0536         119.752         -42.4087         176.557         -42.4087         176.556       -0.0491333         137.272
0.679                    -20.859         128.144         -42.3756         174.455         -42.3756         174.454       -0.0498193         137.168
0.68                    -21.3534         138.038         -42.3444         172.374         -42.3444         172.373        -0.050518         137.064
0.681                   -21.4379         148.497         -42.3147         170.314         -42.3147         170.314       -0.0512296          136.96
0.682                   -21.1177         158.313         -42.2863         168.278         -42.2863         168.277       -0.0519545         136.854
0.683                   -20.4975         166.599          -42.259         166.264          -42.259         166.264       -0.0526928         136.749
0.684                   -19.7119         173.055         -42.2325         164.273         -42.2325         164.273       -0.0534451         136.642
0.685                   -18.8675         177.814         -42.2065         162.307         -42.2066         162.307       -0.0542115         136.535
0.686                   -18.0297        -178.827         -42.1809         160.364         -42.1809         160.364       -0.0549925         136.428
0.687                   -17.2319        -176.564         -42.1552         158.445         -42.1553         158.445       -0.0557883         136.319
0.688                   -16.4885        -175.141         -42.1294          156.55         -42.1294          156.55       -0.0565995          136.21
0.689                   -15.8035        -174.358         -42.1031         154.678         -42.1032         154.678       -0.0574263         136.101
0.69                    -15.1759        -174.069         -42.0762          152.83         -42.0762          152.83       -0.0582691         135.991
0.691                   -14.6022        -174.162         -42.0484         151.004         -42.0484         151.004       -0.0591284          135.88
0.692                   -14.0782        -174.554         -42.0195           149.2         -42.0195           149.2       -0.0600046         135.768
0.693                   -13.5997        -175.183         -41.9893         147.418         -41.9893         147.418       -0.0608981         135.656
0.694                   -13.1624        -176.002         -41.9576         145.657         -41.9576         145.657       -0.0618094         135.543
0.695                   -12.7626        -176.975         -41.9243         143.916         -41.9243         143.917       -0.0627389         135.429
0.696                   -12.3969        -178.073         -41.8892         142.195         -41.8892         142.196       -0.0636872         135.314