! TOUCHSTONE file generated by CST MICROWAVE STUDIO
! Date and time: Mon Nov 30 08:36:43 2020
! Project name: Scenario_1_Planar_Body_Tissue_Out_of_Line.cst
! Parameters = {dy1=-138.4; L_HA=400; Ltissue=700; MT=2.54; Rad_Dielectric=30; Rad_Lower=7.3; Rad_Upper=30; Wtissue=700; a_HA=580; a_WG=246; b_HA=500; b_WG=121; c_HA=0; c_WG=187; d_feed=85; dx1=866; h_feed=15; h_lower=18; h_upper=40; hfat=3; hgap=25; hmuscle=50; hskin=1.5}
! Header version: 2018
! Port assignment regex: !\s*Touchstone port\s*([0-9]+)\s*=\s*(CST MWS port|CST DS port)\s*([0-9]+|Zmin|Zmax)\s*\(\"(.*)\"\)(\s*mode\s*([0-9]+))?.*
! Touchstone port assignment:
! Touchstone port 1 = CST MWS port 1 ("")
! Touchstone port 2 = CST MWS port 2 ("")
# GHz S DB R 50
0.5                    -0.106701         -122.12         -63.9446          103.15         -63.9445         103.154      -0.00750145         151.159
0.501                  -0.112107        -122.583         -63.6959         101.464         -63.6958         101.468      -0.00756935         151.094
0.502                  -0.117978         -123.05         -63.4423         99.7397         -63.4423         99.7434      -0.00763861         151.028
0.503                  -0.124354        -123.521          -63.184         97.9749         -63.1841         97.9784      -0.00770921         150.963
0.504                   -0.13128        -123.995         -62.9211         96.1671         -62.9212         96.1702      -0.00778115         150.898
0.505                  -0.138801        -124.472         -62.6537         94.3136         -62.6538         94.3165      -0.00785443         150.832
0.506                  -0.146969        -124.953          -62.382         92.4117         -62.3821         92.4143      -0.00792904         150.766
0.507                  -0.155835        -125.437         -62.1061         90.4586         -62.1062         90.4609      -0.00800496         150.701
0.508                  -0.165458        -125.924         -61.8264         88.4511         -61.8265         88.4532      -0.00808218         150.635
0.509                  -0.175895        -126.414         -61.5431         86.3861         -61.5433          86.388      -0.00816068         150.569
0.51                   -0.187208        -126.906         -61.2566         84.2604         -61.2568         84.2621      -0.00824045         150.503
0.511                  -0.199457          -127.4         -60.9674         82.0706         -60.9676         82.0722      -0.00832147         150.437
0.512                  -0.212705        -127.896         -60.6758         79.8134         -60.6761         79.8148      -0.00840372         150.371
0.513                   -0.22701        -128.393         -60.3826         77.4853         -60.3828         77.4866      -0.00848717         150.305
0.514                  -0.242426        -128.891         -60.0883         75.0831         -60.0885         75.0842      -0.00857179         150.239
0.515                  -0.259001        -129.388         -59.7937         72.6035         -59.7939         72.6045      -0.00865756         150.173
0.516                  -0.276771        -129.884         -59.4996         70.0436         -59.4999         70.0445      -0.00874445         150.106
0.517                  -0.295755        -130.378          -59.207         67.4007         -59.2073         67.4015      -0.00883242          150.04
0.518                  -0.315956        -130.868          -58.917         64.6727         -58.9173         64.6735      -0.00892144         149.973
0.519                  -0.337347        -131.355         -58.6306          61.858          -58.631         61.8588      -0.00901146         149.907
0.52                   -0.359873        -131.835         -58.3493         58.9558         -58.3496         58.9566      -0.00910246          149.84
0.521                   -0.38344        -132.309         -58.0742         55.9662         -58.0746         55.9669      -0.00919439         149.773
0.522                  -0.407914        -132.774         -57.8069         52.8903         -57.8073          52.891       -0.0092872         149.707
0.523                  -0.433114         -133.23         -57.5488         49.7305         -57.5492         49.7313      -0.00938086          149.64
0.524                  -0.458814        -133.675         -57.3014         46.4907         -57.3018         46.4915      -0.00947531         149.573
0.525                  -0.484742        -134.109         -57.0663         43.1762         -57.0666          43.177      -0.00957052         149.506
0.526                  -0.510585         -134.53         -56.8447         39.7936          -56.845         39.7945      -0.00966642         149.438
0.527                  -0.535998        -134.939         -56.6381         36.3516         -56.6384         36.3525      -0.00976299         149.371
0.528                  -0.560621        -135.336         -56.4476         32.8598         -56.4479         32.8608      -0.00986016         149.304
0.529                  -0.584087        -135.722         -56.2741         29.3294         -56.2745         29.3305       -0.0099579         149.236
0.53                   -0.606051        -136.098         -56.1186         25.7728         -56.1188         25.7739       -0.0100562         149.169
0.531                    -0.6262        -136.465         -55.9813         22.2029         -55.9815         22.2041       -0.0101549         149.101
0.532                  -0.644278        -136.826         -55.8624         18.6331         -55.8626         18.6344        -0.010254         149.033
0.533                  -0.660093        -137.184         -55.7619          15.077         -55.7621         15.0782       -0.0103536         148.966
0.534                  -0.673533         -137.54         -55.6791         11.5475         -55.6793         11.5488       -0.0104535         148.898
0.535                  -0.684564        -137.897         -55.6136         8.05713         -55.6137         8.05843       -0.0105537          148.83
0.536                   -0.69323        -138.259         -55.5642         4.61714         -55.5643         4.61843       -0.0106542         148.762
0.537                  -0.699646        -138.627         -55.5297         1.23754         -55.5298          1.2388       -0.0107549         148.694
0.538                  -0.703982        -139.003         -55.5089        -2.07312          -55.509        -2.07191       -0.0108559         148.625
0.539                  -0.706454        -139.391         -55.5003        -5.30785         -55.5003         -5.3067       -0.0109571         148.557
0.54                   -0.707306         -139.79         -55.5023        -8.46124         -55.5023        -8.46017       -0.0110585         148.488
0.541                  -0.706797        -140.202         -55.5135        -11.5294         -55.5134        -11.5284       -0.0111601          148.42
0.542                   -0.70519        -140.628         -55.5323        -14.5099         -55.5322        -14.5091       -0.0112619         148.351
0.543                  -0.702741        -141.068         -55.5572        -17.4016         -55.5571        -17.4008       -0.0113639         148.282
0.544                   -0.69969        -141.523         -55.5868        -20.2044         -55.5867        -20.2038        -0.011466         148.214
0.545                  -0.696262        -141.992         -55.6199        -22.9193         -55.6197        -22.9188       -0.0115684         148.145
0.546                  -0.692656        -142.475         -55.6551         -25.548         -55.6549        -25.5476        -0.011671         148.075
0.547                  -0.689052        -142.973         -55.6914        -28.0929         -55.6912        -28.0926       -0.0117739         148.006
0.548                  -0.685606        -143.484         -55.7278        -30.5569         -55.7276        -30.5568       -0.0118771         147.937
0.549                   -0.68245        -144.008         -55.7634        -32.9432         -55.7632        -32.9433       -0.0119806         147.867
0.55                   -0.679702        -144.545         -55.7973        -35.2556         -55.7971        -35.2557       -0.0120845         147.798
0.551                  -0.677458        -145.095         -55.8289        -37.4975         -55.8286        -37.4978       -0.0121888         147.728
0.552                  -0.675801        -145.656         -55.8575        -39.6729         -55.8572        -39.6734       -0.0122936         147.658
0.553                  -0.674802        -146.228         -55.8825        -41.7856         -55.8823        -41.7862        -0.012399         147.588
0.554                  -0.674518        -146.812         -55.9036        -43.8395         -55.9034        -43.8402       -0.0125049         147.518
0.555                  -0.675003        -147.407         -55.9203        -45.8384           -55.92        -45.8392       -0.0126115         147.448
0.556                  -0.676298        -148.011         -55.9322        -47.7859          -55.932        -47.7869       -0.0127189         147.378
0.557                  -0.678445        -148.626         -55.9391        -49.6858         -55.9389         -49.687       -0.0128271         147.308
0.558                  -0.681476        -149.251         -55.9407        -51.5416         -55.9404        -51.5429       -0.0129362         147.237
0.559                  -0.685427        -149.885         -55.9367        -53.3567         -55.9365         -53.358       -0.0130462         147.166
0.56                   -0.690327        -150.529         -55.9271        -55.1343         -55.9269        -55.1358       -0.0131574         147.096
0.561                  -0.696208        -151.183         -55.9116        -56.8777         -55.9114        -56.8792       -0.0132696         147.025
0.562                  -0.703102        -151.845         -55.8902        -58.5899         -55.8899        -58.5915       -0.0133831         146.954
0.563                  -0.711041        -152.517         -55.8627        -60.2738         -55.8624        -60.2756       -0.0134979         146.882
0.564                   -0.72006        -153.197          -55.829        -61.9324         -55.8288        -61.9342       -0.0136141         146.811
0.565                  -0.730194        -153.887         -55.7892        -63.5683          -55.789        -63.5702       -0.0137318          146.74
0.566                  -0.741485        -154.586         -55.7431        -65.1842         -55.7429        -65.1862        -0.013851         146.668
0.567                  -0.753975        -155.293         -55.6907        -66.7826         -55.6905        -66.7846       -0.0139719         146.596
0.568                  -0.767711         -156.01          -55.632         -68.366         -55.6319        -68.3681       -0.0140945         146.524
0.569                  -0.782744        -156.736         -55.5671        -69.9369         -55.5669         -69.939       -0.0142189         146.452
0.57                   -0.799129        -157.471         -55.4958        -71.4974         -55.4957        -71.4996       -0.0143452          146.38
0.571                  -0.816928        -158.215         -55.4183          -73.05         -55.4182        -73.0522       -0.0144734         146.308
0.572                  -0.836208        -158.968         -55.3345        -74.5969         -55.3344         -74.599       -0.0146037         146.235
0.573                  -0.857039         -159.73         -55.2444        -76.1401         -55.2444        -76.1423       -0.0147361         146.163
0.574                  -0.879502        -160.501         -55.1482         -77.682         -55.1481        -77.6841       -0.0148706          146.09
0.575                   -0.90368        -161.282         -55.0458        -79.2245         -55.0457        -79.2266       -0.0150074         146.017
0.576                  -0.929668        -162.072         -54.9372        -80.7697         -54.9372        -80.7718       -0.0151466         145.944
0.577                  -0.957565         -162.87         -54.8227        -82.3198         -54.8227        -82.3218        -0.015288         145.871
0.578                   -0.98748        -163.678         -54.7021        -83.8767         -54.7022        -83.8787       -0.0154319         145.798
0.579                   -1.01953        -164.495         -54.5756        -85.4426         -54.5757        -85.4445       -0.0155783         145.724
0.58                    -1.05384        -165.321         -54.4434        -87.0194         -54.4434        -87.0213       -0.0157273          145.65
0.581                   -1.09054        -166.156         -54.3053        -88.6092         -54.3054         -88.611       -0.0158788         145.577
0.582                   -1.12979        -166.999         -54.1617         -90.214         -54.1618        -90.2157        -0.016033         145.503
0.583                   -1.17174         -167.85         -54.0125        -91.8358         -54.0126        -91.8374       -0.0161898         145.428
0.584                   -1.21654        -168.709         -53.8579        -93.4767         -53.8581        -93.4781       -0.0163494         145.354
0.585                   -1.26438        -169.576         -53.6981        -95.1387         -53.6983          -95.14       -0.0165117          145.28
0.586                   -1.31545        -170.449         -53.5332        -96.8239         -53.5334         -96.825       -0.0166769         145.205
0.587                   -1.36994        -171.328         -53.3633        -98.5342         -53.3635        -98.5352       -0.0168449          145.13
0.588                   -1.42806        -172.212         -53.1887        -100.272         -53.1889        -100.273       -0.0170157         145.055
0.589                   -1.49003        -173.101         -53.0096        -102.039         -53.0098        -102.039       -0.0171895          144.98
0.59                    -1.55606        -173.992         -52.8261        -103.837         -52.8264        -103.838       -0.0173662         144.905
0.591                   -1.62639        -174.886         -52.6386        -105.669         -52.6388        -105.669       -0.0175458         144.829
0.592                   -1.70125        -175.779         -52.4472        -107.536         -52.4475        -107.536       -0.0177284         144.754
0.593                   -1.78088         -176.67         -52.2524         -109.44         -52.2527         -109.44        -0.017914         144.678
0.594                   -1.86551        -177.557         -52.0544        -111.383         -52.0547        -111.383       -0.0181026         144.602
0.595                   -1.95535        -178.438         -51.8535        -113.368         -51.8539        -113.367       -0.0182942         144.526
0.596                   -2.05063        -179.308         -51.6503        -115.395         -51.6506        -115.395       -0.0184889         144.449
0.597                   -2.15152         179.834         -51.4449        -117.467         -51.4452        -117.466       -0.0186866         144.373
0.598                   -2.25817         178.992          -51.238        -119.585         -51.2383        -119.584       -0.0188874         144.296
0.599                   -2.37071         178.172         -51.0299         -121.75         -51.0302        -121.749       -0.0190912         144.219
0.6                     -2.48916         177.376         -50.8212        -123.963         -50.8215        -123.962        -0.019298         144.142
0.601                   -2.61352         176.611         -50.6125        -126.226         -50.6127        -126.224        -0.019508         144.065
0.602                   -2.74367         175.882         -50.4042        -128.539         -50.4044        -128.537       -0.0197209         143.987
0.603                   -2.87937         175.195         -50.1969        -130.902         -50.1972          -130.9        -0.019937          143.91
0.604                   -3.02028         174.555         -49.9914        -133.316         -49.9916        -133.313        -0.020156         143.832
0.605                   -3.16587          173.97         -49.7882        -135.779         -49.7883        -135.777       -0.0203782         143.754
0.606                   -3.31545         173.445         -49.5879        -138.292          -49.588        -138.289       -0.0206033         143.676
0.607                   -3.46813         172.988         -49.3912        -140.853         -49.3913         -140.85       -0.0208315         143.597
0.608                    -3.6228         172.604         -49.1987         -143.46         -49.1988        -143.457       -0.0210628         143.519
0.609                   -3.77812         172.299         -49.0112        -146.111         -49.0112        -146.109        -0.021297          143.44
0.61                    -3.93255         172.076         -48.8291        -148.805         -48.8291        -148.802       -0.0215344         143.361
0.611                   -4.08432         171.938          -48.653        -151.536          -48.653        -151.534       -0.0217747         143.281
0.612                   -4.23148         171.887         -48.4835        -154.303         -48.4835          -154.3       -0.0220181         143.202
0.613                   -4.37198          171.92         -48.3211        -157.101         -48.3211        -157.098       -0.0222646         143.122
0.614                   -4.50367         172.035         -48.1662        -159.925         -48.1661        -159.923       -0.0225142         143.042
0.615                   -4.62448         172.225         -48.0191        -162.772          -48.019         -162.77       -0.0227668         142.962
0.616                   -4.73241         172.479           -47.88        -165.636         -47.8799        -165.634       -0.0230226         142.882
0.617                   -4.82575         172.787         -47.7491        -168.512          -47.749         -168.51       -0.0232815         142.801
0.618                   -4.90308         173.133         -47.6265        -171.394         -47.6264        -171.393       -0.0235436          142.72
0.619                   -4.96344         173.502         -47.5122        -174.279          -47.512        -174.277       -0.0238088         142.639
0.62                    -5.00632         173.876          -47.406         -177.16         -47.4059        -177.158       -0.0240773         142.558
0.621                   -5.03174         174.238         -47.3078         179.967         -47.3077         179.969        -0.024349         142.476
0.622                   -5.04021          174.57         -47.2173         177.107         -47.2172         177.109        -0.024624         142.395
0.623                   -5.03269         174.857         -47.1341         174.265          -47.134         174.266       -0.0249023         142.313
0.624                   -5.01051         175.085         -47.0578         171.444         -47.0577         171.444        -0.025184          142.23
0.625                    -4.9753         175.242          -46.988         168.647         -46.9878         168.648       -0.0254691         142.148
0.626                   -4.92888          175.32          -46.924         165.878         -46.9238         165.879       -0.0257577         142.065
0.627                   -4.87313         175.311         -46.8654          163.14         -46.8652         163.141       -0.0260498         141.982
0.628                   -4.80999         175.211         -46.8115         160.435         -46.8114         160.435       -0.0263454         141.899
0.629                    -4.7413         175.019         -46.7619         157.763         -46.7617         157.763       -0.0266446         141.815
0.63                    -4.66879         174.734         -46.7158         155.127         -46.7157         155.127       -0.0269475         141.732
0.631                   -4.59406         174.358         -46.6727         152.527         -46.6726         152.527       -0.0272541         141.647
0.632                   -4.51853         173.892         -46.6321         149.963          -46.632         149.963       -0.0275645         141.563
0.633                   -4.44344          173.34         -46.5934         147.436         -46.5933         147.436       -0.0278788         141.478
0.634                   -4.36986         172.707          -46.556         144.944          -46.556         144.944       -0.0281971         141.394
0.635                   -4.29871         171.994         -46.5195         142.488         -46.5195         142.488       -0.0285194         141.308
0.636                   -4.23074         171.208         -46.4834         140.066         -46.4834         140.066       -0.0288459         141.223
0.637                    -4.1666         170.353         -46.4473         137.678         -46.4473         137.677       -0.0291766         141.137
0.638                   -4.10679         169.431         -46.4107         135.321         -46.4107          135.32       -0.0295116         141.051
0.639                   -4.05174         168.448         -46.3733         132.994         -46.3733         132.993       -0.0298512         140.964
0.64                    -4.00179         167.406         -46.3347         130.695         -46.3347         130.695       -0.0301953         140.878
0.641                   -3.95721         166.309         -46.2947         128.424         -46.2947         128.423       -0.0305442         140.791
0.642                   -3.91822         165.161          -46.253         126.177          -46.253         126.176        -0.030898         140.703
0.643                   -3.88501         163.962         -46.2093         123.952         -46.2094         123.952       -0.0312568         140.616
0.644                   -3.85773         162.717         -46.1635         121.749         -46.1635         121.749       -0.0316209         140.528
0.645                   -3.83652         161.427         -46.1153         119.565         -46.1154         119.565       -0.0319902         140.439
0.646                   -3.82149         160.094         -46.0647         117.397         -46.0648         117.397       -0.0323651         140.351
0.647                   -3.81278         158.718         -46.0115         115.244         -46.0116         115.244       -0.0327457         140.261
0.648                   -3.81048         157.303         -45.9556         113.104         -45.9557         113.104       -0.0331322         140.172
0.649                   -3.81473         155.848         -45.8969         110.974          -45.897         110.974       -0.0335248         140.082
0.65                    -3.82567         154.354         -45.8355         108.853         -45.8356         108.853       -0.0339237         139.992
0.651                   -3.84343         152.822         -45.7713         106.738         -45.7713         106.738        -0.034329         139.902
0.652                   -3.86819         151.253         -45.7042         104.628         -45.7043         104.629       -0.0347411         139.811
0.653                   -3.90014         149.647         -45.6344         102.521         -45.6344         102.522         -0.03516          139.72
0.654                   -3.93948         148.004         -45.5618         100.415         -45.5618         100.416        -0.035586         139.628
0.655                   -3.98645         146.323         -45.4865         98.3084         -45.4866         98.3086       -0.0360194         139.536
0.656                   -4.04133         144.606         -45.4086         96.1988         -45.4087          96.199       -0.0364603         139.444
0.657                   -4.10441         142.852         -45.3283         94.0847         -45.3283          94.085        -0.036909         139.351
0.658                   -4.17602         141.061         -45.2455         91.9647         -45.2455         91.9649       -0.0373657         139.258
0.659                   -4.25654         139.232         -45.1605         89.8371         -45.1605         89.8374       -0.0378306         139.164
0.66                    -4.34638         137.366         -45.0734         87.7005         -45.0734         87.7007       -0.0383039          139.07
0.661                   -4.44599         135.462         -44.9844         85.5534         -44.9844         85.5536       -0.0387859         138.976
0.662                   -4.55587          133.52         -44.8937         83.3945         -44.8937         83.3947       -0.0392768         138.881
0.663                   -4.67657         131.539         -44.8014         81.2226         -44.8014         81.2228       -0.0397769         138.785
0.664                   -4.80869         129.519         -44.7079         79.0366         -44.7079         79.0368       -0.0402863          138.69
0.665                   -4.95289          127.46         -44.6132         76.8355         -44.6132         76.8357       -0.0408053         138.593
0.666                   -5.10991         125.362         -44.5178         74.6185         -44.5178         74.6186       -0.0413341         138.497
0.667                   -5.28051         123.225         -44.4218         72.3847         -44.4218         72.3848        -0.041873           138.4
0.668                   -5.46558         121.048         -44.3255         70.1337         -44.3255         70.1338       -0.0424222         138.302
0.669                   -5.66604         118.832         -44.2292          67.865         -44.2292          67.865       -0.0429819         138.204
0.67                    -5.88294         116.577         -44.1332         65.5783         -44.1332         65.5783       -0.0435524         138.106
0.671                    -6.1174         114.282         -44.0378         63.2736         -44.0378         63.2736        -0.044134         138.007
0.672                   -6.37066         111.949         -43.9433         60.9509         -43.9433         60.9509       -0.0447268         137.907
0.673                   -6.64409         109.577           -43.85         58.6106           -43.85         58.6105       -0.0453311         137.807
0.674                   -6.93921         107.167         -43.7582         56.2531         -43.7582          56.253       -0.0459471         137.707
0.675                   -7.25767          104.72         -43.6682         53.8792         -43.6682         53.8791       -0.0465752         137.606
0.676                   -7.60135         102.236         -43.5804         51.4897         -43.5803         51.4896       -0.0472155         137.504
0.677                   -7.97235         99.7164         -43.4949         49.0857         -43.4949         49.0856       -0.0478684         137.402
0.678                   -8.37303         97.1614         -43.4121         46.6686         -43.4121         46.6685       -0.0485341         137.299
0.679                   -8.80609         94.5718         -43.3322         44.2399         -43.3322         44.2398       -0.0492128         137.196
0.68                    -9.27465         91.9482         -43.2555         41.8011         -43.2555          41.801       -0.0499048         137.093
0.681                   -9.78233         89.2912         -43.1821         39.3543         -43.1821         39.3542       -0.0506105         136.988
0.682                   -10.3334         86.6008         -43.1123         36.9013         -43.1123         36.9013         -0.05133         136.883
0.683                    -10.933         83.8765         -43.0462         34.4444         -43.0462         34.4444       -0.0520638         136.778
0.684                   -11.5872         81.1172         -42.9839         31.9859         -42.9839         31.9859        -0.052812         136.672
0.685                   -12.3038         78.3204         -42.9255         29.5279         -42.9255          29.528       -0.0535751         136.565
0.686                   -13.0923         75.4819         -42.8711          27.073         -42.8711         27.0732       -0.0543532         136.458
0.687                   -13.9652         72.5947         -42.8206         24.6237         -42.8206         24.6238       -0.0551468          136.35
0.688                   -14.9389         69.6472         -42.7741         22.1823         -42.7741         22.1825       -0.0559562         136.242
0.689                   -16.0356         66.6206         -42.7314         19.7513         -42.7314         19.7515       -0.0567817         136.133
0.69                    -17.2867         63.4833         -42.6925          17.333         -42.6925         17.3333       -0.0576237         136.023
0.691                    -18.739         60.1796         -42.6573         14.9297         -42.6572         14.9301       -0.0584825         135.912
0.692                   -20.4653          56.605         -42.6255         12.5437         -42.6255         12.5441       -0.0593586         135.801
0.693                   -22.5899         52.5413          -42.597          10.177          -42.597         10.1774       -0.0602522         135.689
0.694                   -25.3488         47.4536         -42.5715         7.83152         -42.5715         7.83193       -0.0611639         135.577
0.695                   -29.2754         39.6215         -42.5488         5.50896         -42.5488          5.5094       -0.0620939         135.463
0.696                    -35.882         19.6024         -42.5287         3.21094         -42.5287         3.21139       -0.0630429         135.349