! TOUCHSTONE file generated by CST MICROWAVE STUDIO
! Date and time: Thu Feb 11 19:32:38 2021
! Project name: Scenario_1_Planar_Body_Tissue_Out_of_Line.cst
! Parameters = {L_HA=400; Ltissue=1000; MT=2.54; Rad_Dielectric=30; Rad_Lower=7.3; Rad_Upper=30; Wtissue=1000; a_HA=580; a_WG=246; b_HA=500; b_WG=121; c_HA=0; c_WG=187; d_feed=85; dx1=346; dy1=-121.1; h_feed=15; h_lower=18; h_upper=40; hfat=3; hgap=25; hmuscle=50; hskin=1.5}
! Header version: 2018
! Port assignment regex: !\s*Touchstone port\s*([0-9]+)\s*=\s*(CST MWS port|CST DS port)\s*([0-9]+|Zmin|Zmax)\s*\(\"(.*)\"\)(\s*mode\s*([0-9]+))?.*
! Touchstone port assignment:
! Touchstone port 1 = CST MWS port 1 ("")
! Touchstone port 2 = CST MWS port 2 ("")
# GHz S DB R 50
0.5                    -0.273145        -121.533         -55.9536         28.9098         -55.9534         28.9106      -0.00815948         151.145
0.501                  -0.277277        -121.884         -55.8445         26.3679         -55.8443         26.3687      -0.00823186          151.08
0.502                  -0.281027        -122.243          -55.746         23.8728         -55.7458         23.8734      -0.00830419         151.015
0.503                   -0.28444        -122.608         -55.6571         21.4274         -55.6568         21.4279       -0.0083765          150.95
0.504                  -0.287552        -122.981         -55.5768         19.0339         -55.5765         19.0343      -0.00844879         150.884
0.505                  -0.290398        -123.359         -55.5042         16.6939         -55.5039         16.6942      -0.00852109         150.819
0.506                  -0.293007        -123.744         -55.4385         14.4083         -55.4381         14.4085       -0.0085934         150.754
0.507                  -0.295409        -124.134         -55.3787         12.1776         -55.3783         12.1777      -0.00866573         150.688
0.508                  -0.297628         -124.53          -55.324         10.0016         -55.3236         10.0017      -0.00873811         150.623
0.509                  -0.299686        -124.931         -55.2737         7.87995         -55.2734         7.87992      -0.00881054         150.557
0.51                   -0.301605        -125.337         -55.2271         5.81171         -55.2268         5.81164      -0.00888304         150.491
0.511                  -0.303404        -125.748         -55.1835         3.79581         -55.1832          3.7957      -0.00895563         150.425
0.512                    -0.3051        -126.164         -55.1423          1.8309          -55.142         1.83075      -0.00902832          150.36
0.513                   -0.30671        -126.585          -55.103      -0.0845336         -55.1027      -0.0847039      -0.00910113         150.294
0.514                  -0.308249         -127.01          -55.065        -1.95214         -55.0647        -1.95233      -0.00917407         150.228
0.515                  -0.309731        -127.439         -55.0279        -3.77366         -55.0276        -3.77387      -0.00924716         150.161
0.516                   -0.31117        -127.874         -54.9913        -5.55091          -54.991        -5.55112      -0.00932041         150.095
0.517                  -0.312577        -128.312         -54.9548        -7.28572         -54.9545        -7.28594      -0.00939384         150.029
0.518                  -0.313965        -128.756         -54.9181        -8.97994         -54.9178        -8.98016      -0.00946747         149.962
0.519                  -0.315346        -129.203         -54.8809        -10.6354         -54.8806        -10.6356      -0.00954131         149.896
0.52                    -0.31673        -129.655         -54.8429         -12.254         -54.8426        -12.2542      -0.00961539         149.829
0.521                  -0.318127        -130.111         -54.8038        -13.8374         -54.8035        -13.8376      -0.00968972         149.763
0.522                  -0.319547        -130.572         -54.7635        -15.3874         -54.7633        -15.3876      -0.00976432         149.696
0.523                  -0.321001        -131.037         -54.7219        -16.9057         -54.7216        -16.9059       -0.0098392         149.629
0.524                  -0.322497        -131.506         -54.6786         -18.394         -54.6783        -18.3942      -0.00991438         149.562
0.525                  -0.324046         -131.98         -54.6336        -19.8537         -54.6334        -19.8539      -0.00998989         149.495
0.526                  -0.325655        -132.458         -54.5868        -21.2865         -54.5865        -21.2867       -0.0100657         149.428
0.527                  -0.327335         -132.94         -54.5379        -22.6938         -54.5377         -22.694        -0.010142          149.36
0.528                  -0.329094        -133.427         -54.4871         -24.077         -54.4869        -24.0771       -0.0102186         149.293
0.529                  -0.330941        -133.919          -54.434        -25.4374         -54.4338        -25.4376       -0.0102956         149.226
0.53                   -0.332886        -134.415         -54.3788        -26.7763         -54.3786        -26.7765        -0.010373         149.158
0.531                  -0.334936        -134.915         -54.3212         -28.095         -54.3211        -28.0952       -0.0104508          149.09
0.532                  -0.337102        -135.421         -54.2613        -29.3946         -54.2612        -29.3947       -0.0105292         149.023
0.533                  -0.339392        -135.931          -54.199        -30.6762         -54.1989        -30.6763        -0.010608         148.955
0.534                  -0.341816        -136.446         -54.1343        -31.9409         -54.1341        -31.9411       -0.0106873         148.887
0.535                  -0.344383        -136.965          -54.067        -33.1898         -54.0669        -33.1899       -0.0107671         148.819
0.536                  -0.347104         -137.49         -53.9973        -34.4237         -53.9971        -34.4239       -0.0108475         148.751
0.537                  -0.349989        -138.019         -53.9249        -35.6438         -53.9248        -35.6439       -0.0109285         148.682
0.538                  -0.353047        -138.553           -53.85        -36.8507         -53.8499        -36.8508       -0.0110101         148.614
0.539                   -0.35629        -139.093         -53.7725        -38.0455         -53.7724        -38.0456       -0.0110923         148.546
0.54                   -0.359728        -139.638         -53.6923        -39.2288         -53.6923         -39.229       -0.0111751         148.477
0.541                  -0.363373        -140.188         -53.6096        -40.4017         -53.6095        -40.4018       -0.0112586         148.408
0.542                  -0.367238        -140.743         -53.5241        -41.5647          -53.524        -41.5648       -0.0113428          148.34
0.543                  -0.371334        -141.304          -53.436        -42.7187         -53.4359        -42.7188       -0.0114278         148.271
0.544                  -0.375675        -141.871         -53.3451        -43.8643         -53.3451        -43.8644       -0.0115134         148.202
0.545                  -0.380274        -142.443         -53.2516        -45.0022         -53.2516        -45.0024       -0.0115999         148.133
0.546                  -0.385146        -143.021         -53.1553        -46.1332         -53.1553        -46.1334       -0.0116871         148.063
0.547                  -0.390305        -143.605         -53.0563        -47.2579         -53.0563        -47.2581       -0.0117752         147.994
0.548                  -0.395768        -144.195         -52.9546        -48.3769         -52.9546        -48.3771       -0.0118641         147.925
0.549                   -0.40155        -144.791         -52.8501        -49.4908         -52.8501         -49.491       -0.0119539         147.855
0.55                    -0.40767        -145.393         -52.7428        -50.6003         -52.7429        -50.6005       -0.0120446         147.785
0.551                  -0.414146        -146.002         -52.6328         -51.706         -52.6328        -51.7062       -0.0121363         147.715
0.552                  -0.420997        -146.617           -52.52        -52.8084           -52.52        -52.8086       -0.0122289         147.646
0.553                  -0.428245        -147.239         -52.4044        -53.9081         -52.4044        -53.9083       -0.0123225         147.575
0.554                   -0.43591        -147.868          -52.286        -55.0057          -52.286         -55.006       -0.0124172         147.505
0.555                  -0.444016        -148.504         -52.1647        -56.1019         -52.1648        -56.1021       -0.0125129         147.435
0.556                  -0.452588        -149.147         -52.0407        -57.1971         -52.0408        -57.1973       -0.0126097         147.365
0.557                  -0.461652        -149.797         -51.9138        -58.2919         -51.9139        -58.2921       -0.0127076         147.294
0.558                  -0.471235        -150.455         -51.7841         -59.387         -51.7842        -59.3872       -0.0128067         147.223
0.559                  -0.481368        -151.121         -51.6515        -60.4828         -51.6516         -60.483        -0.012907         147.153
0.56                   -0.492081        -151.794          -51.516          -61.58         -51.5161        -61.5802       -0.0130086         147.082
0.561                  -0.503409        -152.476         -51.3777        -62.6791         -51.3778        -62.6793       -0.0131114         147.011
0.562                  -0.515388        -153.166         -51.2365        -63.7808         -51.2366         -63.781       -0.0132155         146.939
0.563                  -0.528055        -153.864         -51.0924        -64.8856         -51.0925        -64.8858       -0.0133209         146.868
0.564                  -0.541452        -154.571         -50.9453        -65.9941         -50.9455        -65.9944       -0.0134278         146.797
0.565                  -0.555623        -155.287         -50.7954         -67.107         -50.7955        -67.1073        -0.013536         146.725
0.566                  -0.570615        -156.012         -50.6425         -68.225         -50.6427        -68.2252       -0.0136457         146.653
0.567                  -0.586478        -156.747         -50.4867        -69.3485         -50.4869        -69.3487        -0.013757         146.581
0.568                  -0.603266        -157.491          -50.328        -70.4784         -50.3281        -70.4786       -0.0138698         146.509
0.569                  -0.621038        -158.245         -50.1662        -71.6153         -50.1664        -71.6155       -0.0139842         146.437
0.57                   -0.639856        -159.009         -50.0016        -72.7598         -50.0017          -72.76       -0.0141002         146.365
0.571                  -0.659786        -159.783         -49.8339        -73.9128         -49.8341         -73.913       -0.0142179         146.293
0.572                  -0.680901        -160.568         -49.6633        -75.0749         -49.6635        -75.0751       -0.0143374          146.22
0.573                  -0.703279        -161.364         -49.4897         -76.247         -49.4899        -76.2471       -0.0144586         146.147
0.574                  -0.727002        -162.171         -49.3132        -77.4298         -49.3134        -77.4299       -0.0145818         146.074
0.575                  -0.752162         -162.99         -49.1336        -78.6241         -49.1338        -78.6242       -0.0147068         146.001
0.576                  -0.778854         -163.82         -48.9511        -79.8308         -48.9513        -79.8309       -0.0148337         145.928
0.577                  -0.807185        -164.663         -48.7656        -81.0508         -48.7658        -81.0508       -0.0149627         145.855
0.578                  -0.837266        -165.517         -48.5772         -82.285         -48.5774         -82.285       -0.0150938         145.781
0.579                  -0.869221        -166.384         -48.3858        -83.5343          -48.386        -83.5343        -0.015227         145.708
0.58                   -0.903181        -167.264         -48.1915        -84.7997         -48.1917        -84.7997       -0.0153624         145.634
0.581                  -0.939288        -168.157         -47.9943        -86.0822         -47.9945        -86.0822          -0.0155          145.56
0.582                  -0.977698        -169.063         -47.7943         -87.383         -47.7945        -87.3829       -0.0156401         145.486
0.583                   -1.01858        -169.983         -47.5913         -88.703         -47.5916         -88.703       -0.0157825         145.411
0.584                    -1.0621        -170.916         -47.3856        -90.0435         -47.3858        -90.0434       -0.0159274         145.337
0.585                   -1.10848        -171.864         -47.1772        -91.4056         -47.1774        -91.4055       -0.0160749         145.262
0.586                    -1.1579        -172.825          -46.966        -92.7905         -46.9662        -92.7903       -0.0162251         145.188
0.587                   -1.21062          -173.8         -46.7523        -94.1995         -46.7525        -94.1993        -0.016378         145.113
0.588                   -1.26686        -174.789         -46.5359        -95.6339         -46.5361        -95.6336       -0.0165337         145.037
0.589                    -1.3269        -175.792         -46.3172         -97.095         -46.3174        -97.0947       -0.0166924         144.962
0.59                    -1.39103        -176.809         -46.0961        -98.5842         -46.0963        -98.5839       -0.0168541         144.887
0.591                   -1.45956         -177.84         -45.8727        -100.103         -45.8729        -100.103       -0.0170189         144.811
0.592                   -1.53283        -178.883         -45.6473        -101.652         -45.6474        -101.652       -0.0171869         144.735
0.593                    -1.6112         -179.94         -45.4199        -103.235           -45.42        -103.234       -0.0173583         144.659
0.594                   -1.69505         178.992         -45.1907        -104.851         -45.1909         -104.85       -0.0175331         144.583
0.595                   -1.78481         177.913         -44.9599        -106.502         -44.9601        -106.501       -0.0177115         144.507
0.596                   -1.88093         176.824         -44.7278         -108.19          -44.728         -108.19       -0.0178936          144.43
0.597                   -1.98389         175.726         -44.4945        -109.917         -44.4947        -109.916       -0.0180795         144.353
0.598                    -2.0942         174.622         -44.2604        -111.683         -44.2605        -111.683       -0.0182693         144.276
0.599                    -2.2124         173.513         -44.0257        -113.491         -44.0258         -113.49       -0.0184633         144.199
0.6                     -2.33907         172.403         -43.7907        -115.341         -43.7908        -115.341       -0.0186614         144.122
0.601                    -2.4748         171.294         -43.5558        -117.235         -43.5559        -117.235       -0.0188639         144.044
0.602                   -2.62021          170.19         -43.3214        -119.175         -43.3215        -119.174        -0.019071         143.967
0.603                   -2.77597         169.096         -43.0878         -121.16         -43.0879        -121.159       -0.0192826         143.889
0.604                   -2.94271         168.016         -42.8555        -123.192         -42.8556        -123.192       -0.0194991          143.81
0.605                   -3.12109         166.958         -42.6251        -125.273         -42.6252        -125.272       -0.0197204         143.732
0.606                   -3.31175         165.928         -42.3969        -127.401          -42.397          -127.4       -0.0199469         143.654
0.607                    -3.5153         164.935         -42.1715        -129.578         -42.1716        -129.577       -0.0201785         143.575
0.608                   -3.73228         163.989         -41.9495        -131.803         -41.9496        -131.802       -0.0204154         143.496
0.609                   -3.96313         163.101         -41.7314        -134.076         -41.7315        -134.075       -0.0206577         143.417
0.61                    -4.20818         162.284         -41.5179        -136.396          -41.518        -136.395       -0.0209056         143.337
0.611                   -4.46755         161.553         -41.3095        -138.762         -41.3095        -138.761        -0.021159         143.258
0.612                   -4.74108         160.924         -41.1068        -141.172         -41.1068        -141.172       -0.0214181         143.178
0.613                    -5.0283         160.415         -40.9104        -143.625         -40.9105        -143.624       -0.0216828         143.098
0.614                   -5.32828         160.047         -40.7209        -146.117          -40.721        -146.117       -0.0219532         143.018
0.615                   -5.63953         159.841         -40.5389        -148.646         -40.5389        -148.646       -0.0222292         142.937
0.616                   -5.95986         159.819         -40.3648        -151.209         -40.3649        -151.209       -0.0225108         142.857
0.617                   -6.28626         160.003         -40.1992        -153.801         -40.1992          -153.8       -0.0227979         142.776
0.618                   -6.61473         160.417         -40.0424        -156.418         -40.0424        -156.418       -0.0230902         142.695
0.619                   -6.94022         161.078         -39.8948        -159.056         -39.8948        -159.056       -0.0233876         142.614
0.62                    -7.25655         161.999         -39.7567        -161.709         -39.7567        -161.709       -0.0236898         142.532
0.621                    -7.5565         163.188         -39.6282        -164.373         -39.6282        -164.373       -0.0239965          142.45
0.622                   -7.83208         164.639         -39.5095        -167.043         -39.5095        -167.043       -0.0243074         142.368
0.623                   -8.07492         166.334         -39.4005        -169.713         -39.4005        -169.713        -0.024622         142.286
0.624                   -8.27696         168.239         -39.3013        -172.377         -39.3013        -172.377       -0.0249401         142.204
0.625                   -8.43124         170.307         -39.2115        -175.031         -39.2116        -175.032       -0.0252611         142.121
0.626                   -8.53272         172.475         -39.1311         -177.67         -39.1311        -177.671       -0.0255846         142.038
0.627                   -8.57894         174.676         -39.0596         179.711         -39.0596          179.71       -0.0259102         141.955
0.628                   -8.57032         176.836         -38.9967         177.116         -38.9967         177.116       -0.0262375         141.872
0.629                   -8.51009         178.891         -38.9418          174.55         -38.9419         174.549        -0.026566         141.789
0.63                    -8.40374        -179.217         -38.8946         172.015         -38.8946         172.015       -0.0268955         141.705
0.631                   -8.25831         -177.53         -38.8544         169.516         -38.8545         169.515       -0.0272256         141.621
0.632                   -8.08153        -176.075         -38.8208         167.054         -38.8208         167.054       -0.0275562         141.536
0.633                   -7.88116        -174.866          -38.793         164.632          -38.793         164.632       -0.0278871         141.452
0.634                   -7.66438        -173.906         -38.7705         162.251         -38.7705         162.251       -0.0282182         141.367
0.635                   -7.43752        -173.187         -38.7527         159.914         -38.7527         159.913       -0.0285496         141.281
0.636                   -7.20589        -172.696          -38.739          157.62          -38.739          157.62       -0.0288815         141.196
0.637                   -6.97379        -172.418         -38.7288          155.37         -38.7288          155.37       -0.0292139          141.11
0.638                   -6.74457        -172.333         -38.7215         153.165         -38.7216         153.165       -0.0295472         141.024
0.639                   -6.52077        -172.422         -38.7167         151.004         -38.7167         151.004       -0.0298816         140.938
0.64                     -6.3042        -172.668         -38.7138         148.887         -38.7138         148.886       -0.0302176         140.851
0.641                   -6.09616        -173.053         -38.7122         146.812         -38.7123         146.812       -0.0305555         140.764
0.642                   -5.89746        -173.561         -38.7117         144.781         -38.7117          144.78       -0.0308958         140.676
0.643                   -5.70859        -174.178         -38.7116          142.79         -38.7117          142.79        -0.031239         140.589
0.644                   -5.52977        -174.891         -38.7118         140.839         -38.7118         140.839       -0.0315855         140.501
0.645                   -5.36101        -175.689         -38.7117         138.927         -38.7117         138.927       -0.0319359         140.412
0.646                   -5.20221        -176.561         -38.7111         137.052         -38.7111         137.052       -0.0322905         140.323
0.647                   -5.05313          -177.5         -38.7096         135.213         -38.7097         135.213         -0.03265         140.234
0.648                   -4.91348        -178.498         -38.7071         133.408         -38.7071         133.408       -0.0330146         140.144
0.649                   -4.78294        -179.547         -38.7031         131.636         -38.7032         131.636       -0.0333849         140.054
0.65                    -4.66113         179.356         -38.6977         129.894         -38.6977         129.894       -0.0337612         139.964
0.651                    -4.5477         178.217         -38.6904         128.183         -38.6904         128.183       -0.0341441         139.873
0.652                   -4.44225         177.041         -38.6812         126.499         -38.6813         126.499       -0.0345338         139.782
0.653                   -4.34442          175.83         -38.6699         124.842           -38.67         124.842       -0.0349307         139.691
0.654                   -4.25386         174.587         -38.6564         123.209         -38.6564         123.209       -0.0353352         139.599
0.655                   -4.17022         173.315         -38.6406           121.6         -38.6406           121.6       -0.0357476         139.507
0.656                   -4.09317         172.015         -38.6222         120.013         -38.6223         120.013       -0.0361681         139.414
0.657                    -4.0224          170.69         -38.6014         118.446         -38.6014         118.446       -0.0365972         139.321
0.658                   -3.95764         169.341         -38.5779         116.898         -38.5779         116.898        -0.037035         139.227
0.659                    -3.8986         167.968         -38.5517         115.367         -38.5517         115.367       -0.0374818         139.133
0.66                    -3.84504         166.573         -38.5228         113.853         -38.5228         113.853        -0.037938         139.039
0.661                   -3.79673         165.156         -38.4911         112.354         -38.4911         112.354       -0.0384037         138.944
0.662                   -3.75347         163.717         -38.4566         110.868         -38.4566         110.868       -0.0388792         138.849
0.663                   -3.71505         162.258         -38.4192         109.395         -38.4192         109.395       -0.0393647         138.753
0.664                   -3.68131         160.777          -38.379         107.933          -38.379         107.933       -0.0398604         138.657
0.665                   -3.65208         159.275         -38.3359         106.481         -38.3358         106.481       -0.0403667          138.56
0.666                   -3.62723         157.752         -38.2899         105.038         -38.2898         105.038       -0.0408837         138.463
0.667                   -3.60664         156.208          -38.241         103.602         -38.2409         103.602       -0.0414116         138.366
0.668                   -3.59019         154.641         -38.1892         102.174         -38.1892         102.174       -0.0419507         138.267
0.669                   -3.57778         153.053         -38.1345         100.751         -38.1345         100.751       -0.0425012         138.169
0.67                    -3.56935         151.441          -38.077         99.3325         -38.0769         99.3325       -0.0430632          138.07
0.671                   -3.56481         149.806         -38.0166         97.9179         -38.0165         97.9178       -0.0436371          137.97
0.672                   -3.56412         148.147         -37.9533         96.5059         -37.9533         96.5059       -0.0442231          137.87
0.673                   -3.56722         146.463         -37.8873         95.0957         -37.8873         95.0956       -0.0448213          137.77
0.674                    -3.5741         144.754         -37.8184         93.6862         -37.8184         93.6862        -0.045432         137.669
0.675                   -3.58472         143.017         -37.7468         92.2766         -37.7468         92.2765       -0.0460554         137.567
0.676                   -3.59909         141.254         -37.6725          90.866         -37.6725         90.8659       -0.0466917         137.465
0.677                    -3.6172         139.461         -37.5954         89.4534         -37.5954         89.4532       -0.0473411         137.362
0.678                   -3.63907         137.639         -37.5157         88.0379         -37.5157         88.0378       -0.0480039         137.259
0.679                   -3.66472         135.787         -37.4334         86.6187         -37.4334         86.6185       -0.0486802         137.155
0.68                    -3.69417         133.902         -37.3485         85.1948         -37.3485         85.1947       -0.0493701         137.051
0.681                   -3.72749         131.984         -37.2611         83.7655         -37.2611         83.7653        -0.050074         136.946
0.682                   -3.76471         130.031         -37.1712         82.3298         -37.1712         82.3296       -0.0507919          136.84
0.683                    -3.8059         128.043         -37.0789         80.8869         -37.0789         80.8867        -0.051524         136.734
0.684                   -3.85113         126.017         -36.9842         79.4358         -36.9842         79.4357       -0.0522705         136.627
0.685                   -3.90048         123.952         -36.8872         77.9758         -36.8872         77.9756       -0.0530314          136.52
0.686                   -3.95403         121.846          -36.788         76.5059          -36.788         76.5057        -0.053807         136.412
0.687                   -4.01188         119.697         -36.6866         75.0252         -36.6866         75.0251       -0.0545974         136.303
0.688                   -4.07413         117.505         -36.5831         73.5329         -36.5831         73.5328       -0.0554027         136.194
0.689                   -4.14088         115.267         -36.4777         72.0281         -36.4777          72.028       -0.0562233         136.084
0.69                    -4.21225          112.98         -36.3704         70.5099         -36.3704         70.5098       -0.0570593         135.973
0.691                   -4.28837         110.643         -36.2613         68.9775         -36.2613         68.9773       -0.0579112         135.862
0.692                   -4.36934         108.255         -36.1505         67.4298         -36.1505         67.4297       -0.0587795          135.75
0.693                   -4.45529         105.811         -36.0382         65.8661         -36.0382          65.866       -0.0596648         135.637
0.694                   -4.54635         103.311         -35.9245         64.2856         -35.9245         64.2855        -0.060568         135.524
0.695                   -4.64264         100.751         -35.8095         62.6873         -35.8095         62.6872       -0.0614902         135.409
0.696                   -4.74428         98.1295         -35.6935         61.0704         -35.6935         61.0704       -0.0624325         135.295