! TOUCHSTONE file generated by CST MICROWAVE STUDIO
! Date and time: Mon Nov 30 08:36:29 2020
! Project name: Scenario_1_Planar_Body_Tissue_Out_of_Line.cst
! Parameters = {dy1=-121.1; L_HA=400; Ltissue=700; MT=2.54; Rad_Dielectric=30; Rad_Lower=7.3; Rad_Upper=30; Wtissue=700; a_HA=580; a_WG=246; b_HA=500; b_WG=121; c_HA=0; c_WG=187; d_feed=85; dx1=866; h_feed=15; h_lower=18; h_upper=40; hfat=3; hgap=25; hmuscle=50; hskin=1.5}
! Header version: 2018
! Port assignment regex: !\s*Touchstone port\s*([0-9]+)\s*=\s*(CST MWS port|CST DS port)\s*([0-9]+|Zmin|Zmax)\s*\(\"(.*)\"\)(\s*mode\s*([0-9]+))?.*
! Touchstone port assignment:
! Touchstone port 1 = CST MWS port 1 ("")
! Touchstone port 2 = CST MWS port 2 ("")
# GHz S DB R 50
0.5                    -0.104886        -122.139         -63.8522         104.229         -63.8519         104.232       -0.0074833         151.161
0.501                  -0.108861        -122.611         -63.5998         102.577         -63.5995          102.58      -0.00754833         151.096
0.502                  -0.113551        -123.086         -63.3428         100.885         -63.3426         100.887      -0.00761501         151.031
0.503                  -0.118996        -123.564         -63.0815         99.1499         -63.0812         99.1521      -0.00768337         150.965
0.504                  -0.125236        -124.046         -62.8157           97.37         -62.8155         97.3721      -0.00775347           150.9
0.505                  -0.132312         -124.53         -62.5457         95.5424         -62.5455         95.5444      -0.00782533         150.835
0.506                  -0.140263        -125.016         -62.2716         93.6646         -62.2714         93.6664      -0.00789898         150.769
0.507                   -0.14913        -125.504         -61.9935         91.7335         -61.9934         91.7352      -0.00797445         150.703
0.508                  -0.158951        -125.995         -61.7117         89.7462         -61.7116         89.7478      -0.00805175         150.637
0.509                  -0.169761        -126.486         -61.4264         87.6995         -61.4263         87.7009      -0.00813087         150.572
0.51                   -0.181593        -126.979         -61.1379           85.59         -61.1379         85.5913      -0.00821181         150.506
0.511                  -0.194475        -127.472         -60.8466         83.4145         -60.8467         83.4156      -0.00829456          150.44
0.512                  -0.208429        -127.965          -60.553         81.1694         -60.5531         81.1704      -0.00837907         150.374
0.513                  -0.223469        -128.457         -60.2576         78.8512         -60.2577         78.8522      -0.00846532         150.308
0.514                    -0.2396        -128.948         -59.9611         76.4566         -59.9612         76.4574      -0.00855324         150.241
0.515                  -0.256818        -129.437          -59.664         73.9822         -59.6642         73.9829      -0.00864278         150.175
0.516                  -0.275103        -129.923         -59.3673         71.4247         -59.3675         71.4253      -0.00873385         150.109
0.517                  -0.294423        -130.405         -59.0718         68.7814          -59.072         68.7819      -0.00882638         150.042
0.518                  -0.314727        -130.883         -58.7786         66.0497         -58.7788         66.0501      -0.00892028         149.976
0.519                  -0.335946        -131.356         -58.4888         63.2277         -58.4891         63.2281      -0.00901543         149.909
0.52                   -0.357993        -131.823         -58.2037         60.3142          -58.204         60.3146      -0.00911174         149.842
0.521                  -0.380758        -132.283         -57.9246          57.309          -57.925         57.3093      -0.00920908         149.776
0.522                  -0.404111        -132.736          -57.653         54.2127         -57.6534         54.2131      -0.00930735         149.709
0.523                  -0.427899         -133.18         -57.3904         51.0274         -57.3908         51.0278      -0.00940641         149.642
0.524                  -0.451951        -133.616         -57.1384         47.7565         -57.1388         47.7568      -0.00950616         149.575
0.525                  -0.476075        -134.043         -56.8985         44.4049         -56.8989         44.4052      -0.00960647         149.508
0.526                  -0.500068        -134.461         -56.6722         40.9792         -56.6726         40.9796      -0.00970723         149.441
0.527                  -0.523712         -134.87         -56.4609         37.4876         -56.4614          37.488      -0.00980834         149.373
0.528                  -0.546786         -135.27         -56.2661         33.9401         -56.2665         33.9406      -0.00990968         149.306
0.529                  -0.569065        -135.661         -56.0887         30.3479         -56.0892         30.3485       -0.0100112         149.239
0.53                   -0.590335        -136.045         -55.9297         26.7238         -55.9301         26.7244       -0.0101127         149.171
0.531                  -0.610389        -136.422         -55.7895         23.0812           -55.79         23.0818       -0.0102142         149.104
0.532                  -0.629044        -136.793         -55.6686         19.4343          -55.669          19.435       -0.0103157         149.036
0.533                  -0.646136         -137.16         -55.5668         15.7975         -55.5672         15.7982        -0.010417         148.968
0.534                  -0.661536        -137.524         -55.4838         12.1848         -55.4842         12.1855       -0.0105182           148.9
0.535                  -0.675145        -137.886         -55.4188         8.60966         -55.4192         8.61031       -0.0106191         148.832
0.536                    -0.6869        -138.248          -55.371         5.08439         -55.3713         5.08501       -0.0107199         148.764
0.537                  -0.696775        -138.613          -55.339         1.62006         -55.3394         1.62062       -0.0108204         148.696
0.538                  -0.704782        -138.981         -55.3217        -1.77382          -55.322        -1.77333       -0.0109207         148.628
0.539                  -0.710963        -139.354         -55.3174        -5.08939         -55.3176        -5.08899       -0.0110208          148.56
0.54                   -0.715395        -139.734         -55.3245        -8.32048         -55.3247        -8.32019       -0.0111207         148.491
0.541                   -0.71818        -140.122         -55.3414        -11.4626         -55.3417        -11.4624       -0.0112205         148.423
0.542                  -0.719443         -140.52         -55.3666        -14.5127         -55.3668        -14.5127       -0.0113202         148.354
0.543                  -0.719329        -140.928         -55.3984        -17.4693         -55.3986        -17.4694       -0.0114198         148.285
0.544                  -0.717993        -141.348         -55.4354        -20.3321         -55.4356        -20.3324       -0.0115194         148.216
0.545                    -0.7156        -141.779         -55.4761        -23.1018         -55.4763        -23.1022       -0.0116191         148.147
0.546                  -0.712321        -142.224         -55.5194        -25.7801         -55.5195        -25.7807       -0.0117189         148.078
0.547                  -0.708324        -142.683         -55.5638        -28.3693          -55.564          -28.37       -0.0118189         148.009
0.548                  -0.703778        -143.155         -55.6085        -30.8723         -55.6086        -30.8732       -0.0119192          147.94
0.549                  -0.698847        -143.641         -55.6524        -33.2924         -55.6525        -33.2935       -0.0120198          147.87
0.55                   -0.693686        -144.141         -55.6947        -35.6334         -55.6948        -35.6346       -0.0121209         147.801
0.551                  -0.688446        -144.656         -55.7346        -37.8989         -55.7347        -37.9002       -0.0122224         147.731
0.552                  -0.683266        -145.185         -55.7715        -40.0929         -55.7716        -40.0944       -0.0123245         147.661
0.553                  -0.678279        -145.728         -55.8047        -42.2195         -55.8048        -42.2211       -0.0124272         147.591
0.554                  -0.673607        -146.285         -55.8339        -44.2825         -55.8339        -44.2843       -0.0125307         147.521
0.555                  -0.669364        -146.856         -55.8584         -46.286         -55.8585        -46.2879        -0.012635         147.451
0.556                  -0.665657        -147.441          -55.878        -48.2338         -55.8781        -48.2358       -0.0127402         147.381
0.557                  -0.662584        -148.039         -55.8924        -50.1296         -55.8925        -50.1317       -0.0128463          147.31
0.558                  -0.660238         -148.65         -55.9013        -51.9772         -55.9014        -51.9794       -0.0129534          147.24
0.559                  -0.658704        -149.275         -55.9044          -53.78         -55.9045        -53.7823       -0.0130617         147.169
0.56                   -0.658065        -149.912         -55.9016        -55.5415         -55.9016        -55.5438       -0.0131712         147.098
0.561                  -0.658397        -150.563         -55.8926         -57.265         -55.8927        -57.2674       -0.0132819         147.027
0.562                  -0.659775        -151.225         -55.8774        -58.9536         -55.8775        -58.9561       -0.0133939         146.956
0.563                   -0.66227          -151.9         -55.8559        -60.6105          -55.856         -60.613       -0.0135073         146.885
0.564                  -0.665954        -152.588          -55.828        -62.2386         -55.8281        -62.2411       -0.0136222         146.814
0.565                  -0.670895        -153.287         -55.7935        -63.8407         -55.7936        -63.8432       -0.0137386         146.742
0.566                  -0.677164        -153.998         -55.7525        -65.4197         -55.7526        -65.4222       -0.0138566          146.67
0.567                  -0.684832        -154.721         -55.7049        -66.9782          -55.705        -66.9807       -0.0139763         146.599
0.568                  -0.693971        -155.455         -55.6506        -68.5188         -55.6508        -68.5213       -0.0140977         146.527
0.569                  -0.704655        -156.201         -55.5897        -70.0441         -55.5899        -70.0465       -0.0142209         146.455
0.57                   -0.716963        -156.959         -55.5222        -71.5565         -55.5224        -71.5589       -0.0143459         146.383
0.571                  -0.730975        -157.727          -55.448        -73.0584         -55.4482        -73.0607       -0.0144728          146.31
0.572                  -0.746776        -158.507         -55.3672        -74.5523         -55.3674        -74.5546       -0.0146017         146.238
0.573                  -0.764456        -159.298         -55.2797        -76.0404         -55.2799        -76.0426       -0.0147326         146.165
0.574                  -0.784111          -160.1         -55.1857        -77.5251         -55.1859        -77.5273       -0.0148655         146.092
0.575                  -0.805842        -160.913         -55.0851        -79.0087         -55.0853        -79.0107       -0.0150006          146.02
0.576                  -0.829756        -161.736          -54.978        -80.4934         -54.9782        -80.4953       -0.0151379         145.946
0.577                  -0.855968         -162.57         -54.8644        -81.9815         -54.8646        -81.9833       -0.0152775         145.873
0.578                    -0.8846        -163.414         -54.7445        -83.4751         -54.7447        -83.4768       -0.0154193           145.8
0.579                  -0.915781        -164.268         -54.6181        -84.9767         -54.6183        -84.9782       -0.0155635         145.726
0.58                    -0.94965        -165.132         -54.4855        -86.4883         -54.4858        -86.4897         -0.01571         145.653
0.581                  -0.986355        -166.005         -54.3468        -88.0123          -54.347        -88.0136       -0.0158591         145.579
0.582                   -1.02605        -166.887          -54.202        -89.5509         -54.2022         -89.552       -0.0160106         145.505
0.583                    -1.0689        -167.778         -54.0512        -91.1064         -54.0514        -91.1074       -0.0161646         145.431
0.584                   -1.11508        -168.677         -53.8945         -92.681         -53.8947        -92.6819       -0.0163213         145.356
0.585                   -1.16477        -169.582         -53.7322        -94.2771         -53.7324        -94.2778       -0.0164806         145.282
0.586                   -1.21818        -170.494         -53.5643        -95.8969         -53.5645        -95.8975       -0.0166427         145.207
0.587                   -1.27548        -171.412          -53.391        -97.5429         -53.3912        -97.5433       -0.0168074         145.132
0.588                   -1.33691        -172.334         -53.2126        -99.2173         -53.2127        -99.2175        -0.016975         145.057
0.589                   -1.40266         -173.26         -53.0291        -100.922         -53.0293        -100.922       -0.0171454         144.982
0.59                    -1.47297        -174.187          -52.841        -102.661         -52.8411        -102.661       -0.0173187         144.907
0.591                   -1.54806        -175.113         -52.6483        -104.434         -52.6485        -104.434       -0.0174949         144.832
0.592                   -1.62814        -176.038         -52.4515        -106.246         -52.4517        -106.245       -0.0176741         144.756
0.593                   -1.71344        -176.959         -52.2508        -108.097          -52.251        -108.096       -0.0178563          144.68
0.594                   -1.80418        -177.874         -52.0466         -109.99         -52.0467         -109.99       -0.0180416         144.604
0.595                   -1.90054        -178.778         -51.8392        -111.928         -51.8394        -111.927         -0.01823         144.528
0.596                   -2.00271        -179.671         -51.6291        -113.912         -51.6292        -113.911       -0.0184216         144.451
0.597                   -2.11083         179.454         -51.4168        -115.945         -51.4169        -115.944       -0.0186163         144.375
0.598                   -2.22501         178.598         -51.2026        -118.027         -51.2027        -118.026       -0.0188142         144.298
0.599                   -2.34532         177.767         -50.9872        -120.161         -50.9873         -120.16       -0.0190154         144.221
0.6                     -2.47174         176.965         -50.7711        -122.348         -50.7711        -122.347       -0.0192199         144.144
0.601                   -2.60419         176.198         -50.5548        -124.589         -50.5549        -124.588       -0.0194278         144.067
0.602                    -2.7425         175.472         -50.3391        -126.886         -50.3391        -126.884        -0.019639         143.989
0.603                   -2.88634         174.791         -50.1246        -129.237         -50.1246        -129.236       -0.0198536         143.912
0.604                   -3.03531         174.163         -49.9119        -131.644         -49.9119        -131.643       -0.0200716         143.834
0.605                   -3.18879         173.594         -49.7019        -134.106         -49.7018        -134.104       -0.0202931         143.756
0.606                   -3.34603          173.09         -49.4951        -136.621         -49.4951         -136.62        -0.020518         143.677
0.607                   -3.50607         172.657         -49.2923         -139.19         -49.2923        -139.189       -0.0207465         143.599
0.608                   -3.66772         172.301         -49.0943        -141.809         -49.0943        -141.809       -0.0209785          143.52
0.609                   -3.82962         172.027         -48.9018        -144.477         -48.9018        -144.476        -0.021214         143.441
0.61                    -3.99017         171.839         -48.7154         -147.19         -48.7153         -147.19       -0.0214531         143.362
0.611                   -4.14757         171.738         -48.5357        -149.945         -48.5357        -149.945       -0.0216958         143.283
0.612                   -4.29988         171.726         -48.3633        -152.738         -48.3633        -152.737        -0.021942         143.203
0.613                   -4.44502         171.801         -48.1989        -155.563         -48.1989        -155.563       -0.0221918         143.124
0.614                   -4.58089         171.959         -48.0426        -158.417         -48.0426        -158.416       -0.0224453         143.044
0.615                   -4.70539         172.193          -47.895        -161.293          -47.895        -161.293       -0.0227023         142.964
0.616                   -4.81656         172.493         -47.7562        -164.186         -47.7563        -164.186       -0.0229629         142.883
0.617                   -4.91268         172.847         -47.6264        -167.091         -47.6265        -167.091       -0.0232272         142.803
0.618                   -4.99234         173.242         -47.5056        -170.001         -47.5058        -170.001        -0.023495         142.722
0.619                   -5.05454          173.66         -47.3938        -172.911         -47.3939        -172.911       -0.0237664         142.641
0.62                    -5.09876         174.085         -47.2907        -175.816         -47.2909        -175.816       -0.0240414         142.559
0.621                   -5.12495         174.498          -47.196        -178.709         -47.1963        -178.709         -0.02432         142.478
0.622                   -5.13357         174.883         -47.1095         178.414         -47.1097         178.414       -0.0246021         142.396
0.623                   -5.12551         175.224         -47.0306         175.558         -47.0309         175.558       -0.0248878         142.314
0.624                   -5.10207         175.506         -46.9588         172.726         -46.9592         172.726        -0.025177         142.232
0.625                   -5.06483         175.717         -46.8937         169.922          -46.894         169.922       -0.0254698         142.149
0.626                   -5.01558         175.847         -46.8344          167.15         -46.8348          167.15       -0.0257661         142.066
0.627                   -4.95623         175.889         -46.7806         164.411          -46.781         164.412       -0.0260658         141.983
0.628                   -4.88872         175.839         -46.7314         161.708         -46.7318         161.709       -0.0263691           141.9
0.629                   -4.81492         175.692         -46.6862         159.043         -46.6867         159.043       -0.0266759         141.816
0.63                    -4.73665          175.45         -46.6444         156.415         -46.6449         156.416       -0.0269861         141.733
0.631                   -4.65555         175.112         -46.6054         153.825         -46.6059         153.826       -0.0272999         141.648
0.632                   -4.57313          174.68         -46.5685         151.274          -46.569         151.275       -0.0276172         141.564
0.633                   -4.49071         174.158         -46.5332          148.76         -46.5337         148.762       -0.0279381         141.479
0.634                   -4.40947         173.549         -46.4989         146.284         -46.4995         146.286       -0.0282626         141.394
0.635                   -4.33038         172.856         -46.4651         143.844         -46.4657         143.846       -0.0285907         141.309
0.636                   -4.25431         172.085         -46.4313         141.439         -46.4319         141.441       -0.0289224         141.224
0.637                   -4.18195         171.239         -46.3972         139.068         -46.3978          139.07        -0.029258         141.138
0.638                    -4.1139         170.322         -46.3622         136.728         -46.3628         136.731       -0.0295974         141.052
0.639                   -4.05064         169.339         -46.3261         134.418         -46.3267         134.421       -0.0299407         140.965
0.64                    -3.99257         168.293         -46.2885         132.137         -46.2891         132.139        -0.030288         140.879
0.641                   -3.94002         167.188         -46.2492         129.881         -46.2498         129.884       -0.0306395         140.792
0.642                   -3.89324         166.027         -46.2078         127.649         -46.2084         127.653       -0.0309954         140.704
0.643                   -3.85247         164.812         -46.1642          125.44         -46.1648         125.443       -0.0313557         140.617
0.644                   -3.81788         163.548         -46.1182          123.25         -46.1188         123.254       -0.0317206         140.529
0.645                   -3.78963         162.234         -46.0697         121.078         -46.0703         121.082       -0.0320903          140.44
0.646                   -3.76788         160.875         -46.0185         118.921          -46.019         118.925       -0.0324651         140.351
0.647                   -3.75274         159.471         -45.9645         116.778          -45.965         116.782       -0.0328451         140.262
0.648                   -3.74435         158.024         -45.9076         114.647         -45.9081         114.651       -0.0332305         140.173
0.649                   -3.74285         156.535         -45.8479         112.525         -45.8484         112.529       -0.0336216         140.083
0.65                    -3.74837         155.006         -45.7852          110.41         -45.7857         110.414       -0.0340186         139.993
0.651                   -3.76106         153.436         -45.7197           108.3         -45.7202         108.304       -0.0344218         139.903
0.652                    -3.7811         151.827         -45.6512         106.194         -45.6517         106.198       -0.0348315         139.812
0.653                   -3.80866          150.18         -45.5799         104.089         -45.5804         104.094       -0.0352478          139.72
0.654                   -3.84395         148.494         -45.5059         101.985         -45.5063         101.989       -0.0356711         139.629
0.655                    -3.8872          146.77         -45.4291         99.8777         -45.4295         99.8819       -0.0361016         139.537
0.656                   -3.93869         145.007         -45.3497         97.7671         -45.3501         97.7713       -0.0365397         139.444
0.657                   -3.99869         143.207         -45.2678         95.6511         -45.2681         95.6553       -0.0369855         139.352
0.658                   -4.06754         141.368         -45.1836         93.5281         -45.1839         93.5323       -0.0374393         139.258
0.659                   -4.14558         139.491         -45.0971         91.3968         -45.0974         91.4009       -0.0379015         139.165
0.66                    -4.23324         137.575         -45.0086         89.2555         -45.0088         89.2596       -0.0383723         139.071
0.661                   -4.33094          135.62         -44.9182         87.1032         -44.9184         87.1071       -0.0388519         138.976
0.662                   -4.43918         133.626         -44.8262         84.9384         -44.8264         84.9422       -0.0393406         138.881
0.663                    -4.5585         131.593         -44.7327         82.7601         -44.7328         82.7638       -0.0398387         138.786
0.664                   -4.68949          129.52         -44.6379         80.5672         -44.6381         80.5708       -0.0403464          138.69
0.665                   -4.83279         127.407         -44.5422         78.3589         -44.5423         78.3624        -0.040864         138.594
0.666                   -4.98912         125.253         -44.4457         76.1343         -44.4459         76.1377       -0.0413917         138.497
0.667                   -5.15925         123.059         -44.3488         73.8929         -44.3489         73.8961       -0.0419298           138.4
0.668                   -5.34405         120.824         -44.2517          71.634         -44.2518         71.6371       -0.0424784         138.302
0.669                   -5.54444         118.548         -44.1546         69.3574         -44.1547         69.3604       -0.0430379         138.204
0.67                    -5.76146         116.231         -44.0579         67.0629          -44.058         67.0657       -0.0436085         138.106
0.671                   -5.99621         113.872         -43.9619         64.7505          -43.962          64.753       -0.0441903         138.007
0.672                   -6.24995         111.472         -43.8669         62.4202          -43.867         62.4226       -0.0447837         137.907
0.673                   -6.52403         109.031         -43.7732         60.0725         -43.7732         60.0747       -0.0453889         137.807
0.674                   -6.81996         106.549          -43.681         57.7079         -43.6811           57.71       -0.0460061         137.706
0.675                   -7.13943         104.025         -43.5908         55.3272         -43.5908          55.329       -0.0466355         137.605
0.676                   -7.48431          101.46         -43.5027         52.9311         -43.5027         52.9328       -0.0472774         137.504
0.677                    -7.8567         98.8536         -43.4171          50.521         -43.4171         50.5224        -0.047932         137.402
0.678                     -8.259         96.2055         -43.3341          48.098         -43.3342         48.0993       -0.0485996         137.299
0.679                   -8.69393         93.5152         -43.2542         45.6637         -43.2542         45.6648       -0.0492804         137.196
0.68                    -9.16463          90.782         -43.1775         43.2198         -43.1775         43.2207       -0.0499747         137.092
0.681                   -9.67476         88.0043         -43.1042         40.7681         -43.1042         40.7689       -0.0506827         136.988
0.682                   -10.2287           85.18         -43.0345         38.3106         -43.0345         38.3112       -0.0514047         136.883
0.683                   -10.8315         82.3057         -42.9685         35.8495         -42.9686           35.85        -0.052141         136.777
0.684                   -11.4895         79.3763         -42.9064         33.3869         -42.9065         33.3873       -0.0528919         136.671
0.685                   -12.2104         76.3841         -42.8483         30.9253         -42.8484         30.9256       -0.0536577         136.564
0.686                    -13.004         73.3178         -42.7942          28.467         -42.7942         28.4672       -0.0544387         136.457
0.687                   -13.8828         70.1604         -42.7441         26.0145         -42.7442         26.0145       -0.0552351         136.349
0.688                   -14.8633         66.8855          -42.698         23.5701         -42.6981           23.57       -0.0560474         136.241
0.689                   -15.9678         63.4523         -42.6558         21.1363         -42.6559         21.1362       -0.0568758         136.131
0.69                    -17.2277         59.7934         -42.6176         18.7155         -42.6177         18.7153       -0.0577207         136.022
0.691                    -18.689         55.7929          -42.583           16.31         -42.5831         16.3098       -0.0585825         135.911
0.692                   -20.4225         51.2358          -42.552          13.922         -42.5521         13.9217       -0.0594616           135.8
0.693                   -22.5447         45.6787         -42.5244         11.5535         -42.5245         11.5532       -0.0603584         135.688
0.694                   -25.2607         38.0606            -42.5         9.20658         -42.5001         9.20623       -0.0612732         135.575
0.695                   -28.9438         25.2099         -42.4784         6.88298         -42.4786         6.88262       -0.0622065         135.462
0.696                   -33.8114        -5.07836         -42.4596         4.58434         -42.4597         4.58397       -0.0631588         135.348