! TOUCHSTONE file generated by CST MICROWAVE STUDIO
! Date and time: Tue Nov 17 07:12:46 2020
! Project name: Scenario_1_Planar_Body_Tissue_Out_of_Line.cst
! Header version: 2018
! Port assignment regex: !\s*Touchstone port\s*([0-9]+)\s*=\s*(CST MWS port|CST DS port)\s*([0-9]+|Zmin|Zmax)\s*\(\"(.*)\"\)(\s*mode\s*([0-9]+))?.*
! Touchstone port assignment:
! Touchstone port 1 = CST MWS port 1 ("")
! Touchstone port 2 = CST MWS port 2 ("")
# GHz S DB R 50
0.5                    -0.158375        -121.606            -63.8        -17.9783         -63.7997        -17.9766      -0.00760936         151.149
0.501                  -0.160117        -122.039         -63.7559        -18.9928         -63.7556        -18.9875      -0.00767564         151.084
0.502                  -0.161943        -122.475         -63.7113        -20.0322          -63.711        -20.0234      -0.00774258         151.019
0.503                  -0.163858        -122.914         -63.6661        -21.0981         -63.6658        -21.0857       -0.0078102         150.953
0.504                  -0.165867        -123.357         -63.6202         -22.192           -63.62        -22.1761      -0.00787848         150.888
0.505                  -0.167976        -123.802         -63.5735        -23.3159         -63.5735        -23.2963      -0.00794742         150.822
0.506                  -0.170191        -124.251         -63.5261        -24.4714         -63.5262        -24.4483      -0.00801702         150.757
0.507                  -0.172519        -124.703         -63.4777        -25.6607         -63.4781        -25.6341      -0.00808728         150.691
0.508                  -0.174967        -125.159         -63.4282        -26.8858         -63.4289        -26.8558      -0.00815818         150.625
0.509                  -0.177543        -125.617         -63.3775         -28.149         -63.3786        -28.1158      -0.00822972         150.559
0.51                   -0.180256         -126.08         -63.3255        -29.4527         -63.3268        -29.4165      -0.00830191         150.493
0.511                  -0.183115        -126.546         -63.2717        -30.7994         -63.2735        -30.7603      -0.00837473         150.427
0.512                  -0.186129        -127.016         -63.2161        -32.1915         -63.2183        -32.1499      -0.00844818         150.361
0.513                  -0.189311         -127.49         -63.1582        -33.6318         -63.1609         -33.588      -0.00852226         150.295
0.514                  -0.192672        -127.967         -63.0977        -35.1229          -63.101        -35.0773      -0.00859696         150.229
0.515                  -0.196225        -128.449         -63.0341        -36.6674          -63.038        -36.6204      -0.00867227         150.163
0.516                  -0.199984        -128.935         -62.9671        -38.2679         -62.9716          -38.22       -0.0087482         150.096
0.517                  -0.203966        -129.425         -62.8959        -39.9268          -62.901        -39.8786      -0.00882473          150.03
0.518                  -0.208187         -129.92           -62.82        -41.6463         -62.8258        -41.5984      -0.00890187         149.963
0.519                  -0.212667        -130.419         -62.7387        -43.4283         -62.7451        -43.3813       -0.0089796         149.897
0.52                   -0.217426        -130.923         -62.6513        -45.2744         -62.6583        -45.2289      -0.00905793          149.83
0.521                  -0.222486        -131.431         -62.5569        -47.1854         -62.5645        -47.1422      -0.00913685         149.763
0.522                  -0.227873        -131.945         -62.4546        -49.1618         -62.4628        -49.1215      -0.00921636         149.696
0.523                  -0.233615        -132.463         -62.3437        -51.2033         -62.3523        -51.1665      -0.00929646         149.629
0.524                  -0.239741        -132.987         -62.2232        -53.3087         -62.2321        -53.2759      -0.00937716         149.562
0.525                  -0.246285        -133.516         -62.0922        -55.4761         -62.1014        -55.4478      -0.00945845         149.495
0.526                  -0.253284         -134.05         -61.9499        -57.7027         -61.9592        -57.6792      -0.00954035         149.427
0.527                   -0.26078         -134.59         -61.7956        -59.9849         -61.8049        -59.9663      -0.00962286          149.36
0.528                  -0.268817        -135.136         -61.6286         -62.318         -61.6378        -62.3045      -0.00970601         149.293
0.529                  -0.277445        -135.688         -61.4484        -64.6972         -61.4573        -64.6886       -0.0097898         149.225
0.53                   -0.286721        -136.246         -61.2546        -67.1169         -61.2632        -67.1128      -0.00987428         149.157
0.531                  -0.296706         -136.81         -61.0472        -69.5712         -61.0552        -69.5713      -0.00995947          149.09
0.532                  -0.307468        -137.381         -60.8261        -72.0543         -60.8336        -72.0581       -0.0100454         149.022
0.533                  -0.319084        -137.957         -60.5917        -74.5608         -60.5984        -74.5675       -0.0101322         148.954
0.534                  -0.331637        -138.541         -60.3442        -77.0857         -60.3503        -77.0946       -0.0102199         148.886
0.535                  -0.345222        -139.131         -60.0845        -79.6247         -60.0897        -79.6351       -0.0103085         148.817
0.536                  -0.359943        -139.728         -59.8132        -82.1746         -59.8177        -82.1858       -0.0103983         148.749
0.537                  -0.375914        -140.331         -59.5313        -84.7334          -59.535        -84.7445       -0.0104892         148.681
0.538                  -0.393262        -140.941         -59.2398           -87.3         -59.2428        -87.3106       -0.0105816         148.612
0.539                  -0.412127        -141.557         -58.9398        -89.8749         -58.9421        -89.8843       -0.0106755         148.544
0.54                   -0.432664         -142.18         -58.6324        -92.4597         -58.6341        -92.4675       -0.0107711         148.475
0.541                  -0.455041        -142.808         -58.3188         -95.057           -58.32        -95.0629       -0.0108687         148.406
0.542                   -0.47944        -143.442         -58.0001        -97.6705         -58.0008        -97.6743       -0.0109685         148.337
0.543                   -0.50606         -144.08         -57.6775        -100.305         -57.6778        -100.307       -0.0110708         148.268
0.544                   -0.53511        -144.723          -57.352        -102.966          -57.352        -102.965       -0.0111758         148.199
0.545                  -0.566814        -145.368         -57.0248        -105.658         -57.0245        -105.656       -0.0112838          148.13
0.546                    -0.6014        -146.014          -56.697         -108.39         -56.6965        -108.385        -0.011395          148.06
0.547                  -0.639099         -146.66         -56.3697        -111.166         -56.3691        -111.159       -0.0115097         147.991
0.548                  -0.680133        -147.302         -56.0439        -113.993         -56.0432        -113.985       -0.0116279         147.921
0.549                  -0.724707        -147.939         -55.7208        -116.879           -55.72        -116.869       -0.0117497         147.851
0.55                   -0.772986        -148.568         -55.4015        -119.827         -55.4007        -119.817       -0.0118751         147.782
0.551                  -0.825079        -149.183         -55.0873        -122.845         -55.0864        -122.834       -0.0120039         147.712
0.552                   -0.88101        -149.782         -54.7793        -125.937         -54.7785        -125.926        -0.012136         147.642
0.553                  -0.940683        -150.357         -54.4789        -129.106         -54.4781        -129.095        -0.012271         147.571
0.554                   -1.00385        -150.906         -54.1875        -132.356         -54.1868        -132.345       -0.0124086         147.501
0.555                   -1.07006         -151.42         -53.9064        -135.687         -53.9058        -135.676       -0.0125482         147.431
0.556                   -1.13863        -151.895         -53.6373        -139.099         -53.6367        -139.089       -0.0126896          147.36
0.557                   -1.20865        -152.325         -53.3815        -142.591          -53.381        -142.582       -0.0128321          147.29
0.558                   -1.27889        -152.706         -53.1404         -146.16           -53.14        -146.152       -0.0129755         147.219
0.559                   -1.34791        -153.035         -52.9156        -149.799         -52.9153        -149.792       -0.0131194         147.149
0.56                    -1.41405        -153.311         -52.7084        -153.501         -52.7082        -153.496       -0.0132635         147.078
0.561                   -1.47557        -153.537         -52.5197        -157.258         -52.5196        -157.254       -0.0134076         147.007
0.562                   -1.53073        -153.716         -52.3507        -161.059         -52.3507        -161.056       -0.0135515         146.936
0.563                   -1.57797        -153.858          -52.202        -164.891         -52.2021        -164.889       -0.0136952         146.864
0.564                   -1.61604        -153.974         -52.0739        -168.741         -52.0742        -168.741       -0.0138386         146.793
0.565                   -1.64415        -154.075         -51.9667        -172.597         -51.9671        -172.598       -0.0139818         146.722
0.566                     -1.662        -154.176           -51.88        -176.443         -51.8805        -176.445       -0.0141248          146.65
0.567                   -1.66985        -154.289         -51.8133         179.734         -51.8139         179.731       -0.0142677         146.578
0.568                   -1.66838        -154.428         -51.7657         175.947         -51.7665         175.943       -0.0144105         146.506
0.569                   -1.65869        -154.602         -51.7362         172.207          -51.737         172.202       -0.0145535         146.434
0.57                    -1.64209        -154.819         -51.7232         168.526         -51.7242         168.521       -0.0146966         146.362
0.571                   -1.62002        -155.084         -51.7255         164.913         -51.7266         164.908       -0.0148401          146.29
0.572                   -1.59391          -155.4         -51.7412         161.376         -51.7424         161.369       -0.0149841         146.218
0.573                   -1.56512        -155.767         -51.7687         157.919           -51.77         157.913       -0.0151286         146.145
0.574                   -1.53485        -156.185         -51.8063         154.548         -51.8076         154.541       -0.0152737         146.072
0.575                   -1.50413        -156.652         -51.8523         151.265         -51.8537         151.258       -0.0154197         145.999
0.576                   -1.47382        -157.164          -51.905         148.071         -51.9064         148.065       -0.0155665         145.926
0.577                    -1.4446        -157.718         -51.9629         144.967         -51.9643         144.961       -0.0157144         145.853
0.578                     -1.417        -158.312         -52.0246         141.952          -52.026         141.945       -0.0158633          145.78
0.579                   -1.39141        -158.941         -52.0886         139.023           -52.09         139.017       -0.0160133         145.706
0.58                    -1.36811        -159.603         -52.1537         136.178         -52.1551         136.173       -0.0161646         145.633
0.581                    -1.3473        -160.294         -52.2189         133.415         -52.2203          133.41       -0.0163173         145.559
0.582                   -1.32912        -161.012         -52.2832          130.73         -52.2845         130.725       -0.0164713         145.485
0.583                   -1.31364        -161.755         -52.3456          128.12         -52.3469         128.115       -0.0166268         145.411
0.584                    -1.3009         -162.52         -52.4054         125.579         -52.4067         125.575       -0.0167839         145.337
0.585                   -1.29092        -163.306          -52.462         123.106         -52.4632         123.102       -0.0169425         145.262
0.586                   -1.28371        -164.112         -52.5146         120.694         -52.5158         120.691       -0.0171029         145.188
0.587                   -1.27925        -164.936         -52.5629         118.342          -52.564         118.338        -0.017265         145.113
0.588                   -1.27755        -165.777         -52.6063         116.043         -52.6074          116.04       -0.0174289         145.038
0.589                   -1.27858        -166.634         -52.6446         113.795         -52.6455         113.793       -0.0175946         144.963
0.59                    -1.28236        -167.507         -52.6773         111.594         -52.6782         111.592       -0.0177624         144.887
0.591                   -1.28887        -168.396         -52.7042         109.436          -52.705         109.434       -0.0179321         144.812
0.592                   -1.29814        -169.299         -52.7251         107.316         -52.7259         107.315       -0.0181039         144.736
0.593                   -1.31019        -170.216         -52.7398         105.233         -52.7405         105.232       -0.0182778          144.66
0.594                   -1.32506        -171.148         -52.7482         103.182         -52.7489         103.181       -0.0184539         144.584
0.595                   -1.34279        -172.094         -52.7502          101.16         -52.7508         101.159       -0.0186323         144.508
0.596                   -1.36345        -173.054         -52.7456         99.1632         -52.7462         99.1624        -0.018813         144.432
0.597                   -1.38712        -174.028         -52.7345         97.1892          -52.735         97.1886       -0.0189962         144.355
0.598                   -1.41387        -175.015         -52.7168         95.2346         -52.7172         95.2341       -0.0191817         144.278
0.599                   -1.44383        -176.016         -52.6925         93.2964         -52.6928         93.2961       -0.0193699         144.202
0.6                     -1.47712        -177.031         -52.6616         91.3716         -52.6619         91.3715       -0.0195606         144.124
0.601                   -1.51388        -178.059         -52.6241         89.4576         -52.6243         89.4575        -0.019754         144.047
0.602                   -1.55426        -179.101         -52.5801         87.5513         -52.5803         87.5513       -0.0199502         143.969
0.603                   -1.59844         179.844         -52.5297         85.6501         -52.5299         85.6502       -0.0201492         143.892
0.604                   -1.64662         178.776          -52.473         83.7513         -52.4731         83.7515       -0.0203511         143.814
0.605                   -1.69901         177.695         -52.4101         81.8523         -52.4102         81.8525        -0.020556         143.736
0.606                   -1.75584         176.601         -52.3411         79.9505         -52.3411         79.9507        -0.020764         143.657
0.607                   -1.81738         175.496         -52.2661         78.0433         -52.2661         78.0436       -0.0209751         143.579
0.608                   -1.88389          174.38         -52.1854         76.1283         -52.1854         76.1286       -0.0211895           143.5
0.609                   -1.95568         173.253         -52.0991         74.2031         -52.0991         74.2034       -0.0214071         143.421
0.61                    -2.03307         172.116         -52.0074         72.2653         -52.0074         72.2656       -0.0216282         143.342
0.611                   -2.11638         170.972         -51.9106         70.3126         -51.9106          70.313       -0.0218527         143.262
0.612                   -2.20598          169.82          -51.809          68.343         -51.8089         68.3433       -0.0220808         143.183
0.613                   -2.30226         168.664         -51.7027         66.3542         -51.7026         66.3545       -0.0223125         143.103
0.614                   -2.40559         167.504         -51.5921         64.3443         -51.5921         64.3446       -0.0225479         143.023
0.615                   -2.51639         166.344         -51.4776         62.3114         -51.4775         62.3117       -0.0227871         142.942
0.616                   -2.63508         165.187         -51.3594         60.2537         -51.3593          60.254       -0.0230303         142.862
0.617                   -2.76206         164.035         -51.2379         58.1697         -51.2378         58.1699       -0.0232773         142.781
0.618                   -2.89777         162.893         -51.1136         56.0579         -51.1135         56.0581       -0.0235285           142.7
0.619                    -3.0426         161.766         -50.9867          53.917         -50.9867         53.9172       -0.0237837         142.618
0.62                    -3.19693         160.658         -50.8579         51.7461         -50.8578         51.7463       -0.0240432         142.537
0.621                   -3.36109         159.576         -50.7274         49.5443         -50.7273         49.5445       -0.0243069         142.455
0.622                   -3.53535         158.527         -50.5957          47.311         -50.5957         47.3112        -0.024575         142.373
0.623                   -3.71993         157.518         -50.4634          45.046         -50.4633         45.0462       -0.0248475         142.291
0.624                    -3.9149         156.557         -50.3308         42.7492         -50.3308         42.7494       -0.0251245         142.208
0.625                   -4.12022         155.655         -50.1985         40.4209         -50.1985         40.4211        -0.025406         142.125
0.626                   -4.33566         154.821         -50.0669         38.0617         -50.0669         38.0619       -0.0256922         142.042
0.627                   -4.56076         154.066         -49.9366         35.6724         -49.9365         35.6727        -0.025983         141.959
0.628                   -4.79482         153.403         -49.8078         33.2544         -49.8078         33.2546       -0.0262786         141.875
0.629                   -5.03681         152.843         -49.6812          30.809         -49.6811         30.8093        -0.026579         141.792
0.63                    -5.28534           152.4          -49.557         28.3382          -49.557         28.3384       -0.0268842         141.707
0.631                    -5.5386         152.084         -49.4357          25.844         -49.4356         25.8442       -0.0271943         141.623
0.632                   -5.79432         151.908         -49.3176         23.3287         -49.3175         23.3289       -0.0275094         141.538
0.633                   -6.04975         151.881         -49.2029          20.795         -49.2028         20.7952       -0.0278295         141.453
0.634                   -6.30168          152.01          -49.092         18.2457         -49.0919         18.2458       -0.0281546         141.368
0.635                   -6.54643           152.3          -48.985         15.6836         -48.9849         15.6837       -0.0284848         141.283
0.636                   -6.77998         152.749         -48.8821         13.1119          -48.882         13.1119       -0.0288202         141.197
0.637                   -6.99811         153.351         -48.7833         10.5336         -48.7832         10.5335       -0.0291607         141.111
0.638                   -7.19656         154.095         -48.6887         7.95185         -48.6886         7.95172       -0.0295065         141.024
0.639                   -7.37133         154.963         -48.5982         5.36973         -48.5981         5.36953       -0.0298576         140.937
0.64                    -7.51893         155.929         -48.5118         2.79025         -48.5117         2.78997        -0.030214          140.85
0.641                   -7.63663         156.964         -48.4294        0.216271         -48.4293        0.215908       -0.0305758         140.763
0.642                   -7.72276         158.034         -48.3507         -2.3495         -48.3506        -2.34995       -0.0309431         140.675
0.643                   -7.77675         159.103         -48.2755        -4.90457         -48.2754         -4.9051       -0.0313159         140.587
0.644                   -7.79923         160.136         -48.2036        -7.44665         -48.2036        -7.44728       -0.0316943         140.499
0.645                   -7.79194         161.102         -48.1348        -9.97375         -48.1347        -9.97446       -0.0320783          140.41
0.646                   -7.75752          161.97         -48.0685        -12.4841         -48.0685        -12.4849       -0.0324681         140.321
0.647                   -7.69926         162.717         -48.0047        -14.9762         -48.0046        -14.9771       -0.0328636         140.232
0.648                   -7.62088         163.328         -47.9428         -17.449         -47.9427        -17.4499       -0.0332651         140.142
0.649                   -7.52623         163.789         -47.8825        -19.9014         -47.8825        -19.9024       -0.0336727         140.052
0.65                     -7.4191         164.095         -47.8235        -22.3329         -47.8235         -22.334       -0.0340863         139.962
0.651                   -7.30304         164.245         -47.7654        -24.7432         -47.7654        -24.7443       -0.0345062         139.871
0.652                   -7.18127          164.24         -47.7079         -27.132         -47.7078        -27.1331       -0.0349324          139.78
0.653                   -7.05666         164.084         -47.6505        -29.4995         -47.6505        -29.5007       -0.0353651         139.688
0.654                   -6.93161         163.785         -47.5931        -31.8461         -47.5931        -31.8473       -0.0358044         139.596
0.655                    -6.8082          163.35         -47.5351        -34.1722         -47.5351        -34.1734       -0.0362505         139.504
0.656                    -6.6881         162.787         -47.4765        -36.4787         -47.4765        -36.4799       -0.0367035         139.411
0.657                   -6.57267         162.106         -47.4168        -38.7664         -47.4168        -38.7676       -0.0371637         139.318
0.658                   -6.46302         161.313         -47.3558        -41.0362         -47.3558        -41.0374       -0.0376311         139.225
0.659                   -6.35998         160.417         -47.2932        -43.2894         -47.2933        -43.2906       -0.0381059         139.131
0.66                    -6.26423         159.426         -47.2289        -45.5272          -47.229        -45.5283       -0.0385884         139.037
0.661                   -6.17627         158.345         -47.1627         -47.751         -47.1627         -47.752       -0.0390787         138.942
0.662                    -6.0965         157.182         -47.0942        -49.9621         -47.0943        -49.9631       -0.0395771         138.847
0.663                    -6.0252         155.941         -47.0235        -52.1621         -47.0236         -52.163       -0.0400837         138.751
0.664                    -5.9626         154.627         -46.9504        -54.3525         -46.9505        -54.3534       -0.0405989         138.655
0.665                   -5.90887         153.244         -46.8747        -56.5349         -46.8748        -56.5357       -0.0411227         138.558
0.666                   -5.86416         151.797         -46.7964        -58.7109         -46.7965        -58.7117       -0.0416556         138.461
0.667                   -5.82858         150.287         -46.7154        -60.8823         -46.7155        -60.8829       -0.0421976         138.364
0.668                   -5.80227         148.718         -46.6316        -63.0505         -46.6317        -63.0511       -0.0427491         138.266
0.669                   -5.78533         147.091          -46.545        -65.2174          -46.545        -65.2179       -0.0433104         138.168
0.67                     -5.7779         145.408         -46.4555        -67.3846         -46.4556         -67.385       -0.0438817         138.069
0.671                   -5.78014         143.671         -46.3633        -69.5538         -46.3634        -69.5542       -0.0444632         137.969
0.672                   -5.79222         141.879         -46.2682        -71.7266         -46.2683        -71.7269       -0.0450554          137.87
0.673                   -5.81435         140.035         -46.1704        -73.9048         -46.1705        -73.9051       -0.0456585         137.769
0.674                   -5.84678         138.137         -46.0699          -76.09           -46.07        -76.0902       -0.0462727         137.668
0.675                   -5.88979         136.186         -45.9669        -78.2838         -45.9669        -78.2839       -0.0468985         137.567
0.676                   -5.94371         134.182         -45.8612        -80.4878         -45.8613        -80.4878       -0.0475361         137.465
0.677                   -6.00892         132.124         -45.7532        -82.7035         -45.7533        -82.7035       -0.0481858         137.362
0.678                   -6.08587         130.012          -45.643        -84.9325          -45.643        -84.9324       -0.0488481         137.259
0.679                   -6.17504         127.844         -45.5306        -87.1762         -45.5307        -87.1761       -0.0495232         137.156
0.68                      -6.277         125.619         -45.4163        -89.4361         -45.4164         -89.436       -0.0502115         137.051
0.681                   -6.39239         123.336         -45.3003        -91.7135         -45.3004        -91.7133       -0.0509134         136.947
0.682                    -6.5219         120.993         -45.1828        -94.0096         -45.1828        -94.0094       -0.0516293         136.841
0.683                   -6.66633         118.588          -45.064        -96.3256          -45.064        -96.3254       -0.0523595         136.735
0.684                   -6.82657          116.12         -44.9441        -98.6626         -44.9441        -98.6624       -0.0531044         136.629
0.685                    -7.0036         113.586         -44.8235        -101.022         -44.8235        -101.021       -0.0538645         136.521
0.686                   -7.19853         110.983         -44.7024        -103.403         -44.7025        -103.403       -0.0546401         136.414
0.687                   -7.41258         108.308         -44.5812        -105.808         -44.5812        -105.808       -0.0554318         136.305
0.688                    -7.6471         105.558         -44.4601        -108.237         -44.4601        -108.237       -0.0562398         136.196
0.689                   -7.90362          102.73         -44.3395        -110.691         -44.3396         -110.69       -0.0570647         136.086
0.69                    -8.18382         99.8174         -44.2198        -113.168         -44.2198        -113.168        -0.057907         135.976
0.691                    -8.4896         96.8165         -44.1013         -115.67         -44.1013         -115.67        -0.058767         135.864
0.692                   -8.82307         93.7205         -43.9843        -118.196         -43.9844        -118.196       -0.0596454         135.752
0.693                   -9.18662         90.5217         -43.8694        -120.746         -43.8694        -120.746       -0.0605425          135.64
0.694                   -9.58292         87.2106         -43.7567        -123.318         -43.7567        -123.318       -0.0614589         135.526
0.695                    -10.015         83.7757         -43.6467        -125.912         -43.6468        -125.912       -0.0623952         135.412
0.696                   -10.4864         80.2022         -43.5398        -128.526         -43.5399        -128.526       -0.0633518         135.298
0.697                    -11.001         76.4712         -43.4363        -131.159         -43.4364        -131.159       -0.0643293         135.182
0.698                   -11.5633          72.558         -43.3365        -133.809         -43.3366        -133.809       -0.0653283         135.066