! TOUCHSTONE file generated by CST MICROWAVE STUDIO
! Date and time: Fri Dec 11 14:10:56 2020
! Project name: Scenario_1_Planar_Body_Tissue_Out_of_Line_v2.cst
! Parameters = {dy1=-86.5; L_HA=400; Ltissue=700; MT=2.54; Rad_Dielectric=30; Rad_Lower=7.3; Rad_Upper=30; Wtissue=700; a_HA=580; a_WG=246; b_HA=500; b_WG=121; c_HA=0; c_WG=187; d_feed=85; dx1=520; h_feed=15; h_lower=18; h_upper=40; hfat=3; hgap=25; hmuscle=50; hskin=1.5}
! Header version: 2018
! Port assignment regex: !\s*Touchstone port\s*([0-9]+)\s*=\s*(CST MWS port|CST DS port)\s*([0-9]+|Zmin|Zmax)\s*\(\"(.*)\"\)(\s*mode\s*([0-9]+))?.*
! Touchstone port assignment:
! Touchstone port 1 = CST MWS port 1 ("")
! Touchstone port 2 = CST MWS port 2 ("")
# GHz S DB R 50
0.5                   -0.0768517        -121.855         -61.6403        -49.6479         -61.6405        -49.6437      -0.00732632         151.158
0.501                 -0.0796267        -122.313         -61.4295        -50.6633         -61.4298        -50.6593      -0.00738627         151.093
0.502                 -0.0825966        -122.775         -61.2143         -51.692         -61.2146        -51.6882      -0.00744683         151.028
0.503                 -0.0857775         -123.24         -60.9946        -52.7347         -60.9949        -52.7311        -0.007508         150.963
0.504                  -0.089187         -123.71         -60.7703        -53.7922         -60.7706        -53.7887       -0.0075698         150.897
0.505                 -0.0928443        -124.184         -60.5413        -54.8654         -60.5416        -54.8621      -0.00763224         150.832
0.506                 -0.0967709        -124.663         -60.3075         -55.955         -60.3079        -55.9519      -0.00769535         150.766
0.507                   -0.10099        -125.146         -60.0689        -57.0623         -60.0693        -57.0593      -0.00775915         150.701
0.508                  -0.105529        -125.634         -59.8254        -58.1881         -59.8258        -58.1853      -0.00782365         150.635
0.509                  -0.110415        -126.126          -59.577        -59.3338         -59.5774        -59.3311      -0.00788889         150.569
0.51                    -0.11568        -126.623         -59.3235        -60.5005         -59.3239         -60.498       -0.0079549         150.503
0.511                  -0.121361        -127.126         -59.0649        -61.6896         -59.0653        -61.6873       -0.0080217         150.438
0.512                  -0.127495        -127.634         -58.8011        -62.9027         -58.8015        -62.9004      -0.00808933         150.372
0.513                  -0.134128        -128.147          -58.532        -64.1412         -58.5325        -64.1391      -0.00815783         150.305
0.514                  -0.141306        -128.665         -58.2577        -65.4071         -58.2581        -65.4051      -0.00822726         150.239
0.515                  -0.149084        -129.189         -57.9779        -66.7021         -57.9784        -66.7002      -0.00829765         150.173
0.516                  -0.157521        -129.719         -57.6928        -68.0283         -57.6933        -68.0265      -0.00836907         150.107
0.517                  -0.166685        -130.255         -57.4022        -69.3879         -57.4026        -69.3863      -0.00844159          150.04
0.518                  -0.176648        -130.797          -57.106        -70.7834         -57.1065        -70.7819      -0.00851527         149.974
0.519                  -0.187494        -131.345         -56.8044        -72.2174         -56.8048        -72.2159       -0.0085902         149.907
0.52                   -0.199314          -131.9         -56.4972        -73.6926         -56.4976        -73.6912      -0.00866647          149.84
0.521                   -0.21221         -132.46         -56.1845        -75.2121         -56.1849        -75.2109       -0.0087442         149.774
0.522                  -0.226295        -133.027         -55.8663        -76.7793         -55.8667        -76.7781       -0.0088235         149.707
0.523                  -0.241694          -133.6         -55.5426        -78.3977         -55.5431        -78.3965      -0.00890451          149.64
0.524                  -0.258546         -134.18         -55.2137         -80.071         -55.2142          -80.07      -0.00898738         149.573
0.525                  -0.277003        -134.765         -54.8796        -81.8035           -54.88        -81.8025      -0.00907229         149.505
0.526                  -0.297233        -135.356         -54.5405        -83.5996         -54.5409        -83.5986      -0.00915943         149.438
0.527                   -0.31942        -135.952         -54.1967        -85.4638         -54.1971         -85.463      -0.00924901         149.371
0.528                   -0.34376        -136.553         -53.8484        -87.4014         -53.8488        -87.4006      -0.00934128         149.303
0.529                  -0.370466        -137.157         -53.4962        -89.4175         -53.4966        -89.4167      -0.00943651         149.236
0.53                   -0.399763        -137.764         -53.1404        -91.5177         -53.1408        -91.5169      -0.00953497         149.168
0.531                  -0.431885        -138.373         -52.7818        -93.7078         -52.7822        -93.7071        -0.009637           149.1
0.532                  -0.467069        -138.981         -52.4211        -95.9936         -52.4214        -95.9929      -0.00974291         149.032
0.533                  -0.505548        -139.586         -52.0591        -98.3813         -52.0594        -98.3806      -0.00985306         148.964
0.534                  -0.547541        -140.186         -51.6969        -100.877         -51.6972        -100.876       -0.0099678         148.896
0.535                  -0.593234        -140.778         -51.3358        -103.485         -51.3361        -103.485       -0.0100875         148.828
0.536                  -0.642762        -141.358         -50.9772        -106.212         -50.9775        -106.212       -0.0102124          148.76
0.537                  -0.696185        -141.921         -50.6228        -109.063         -50.6231        -109.062       -0.0103429         148.692
0.538                  -0.753454        -142.463         -50.2745         -112.04         -50.2747         -112.04       -0.0104792         148.623
0.539                  -0.814378        -142.979         -49.9344        -115.146         -49.9346        -115.146       -0.0106214         148.555
0.54                   -0.878584        -143.461         -49.6047        -118.382         -49.6049        -118.381       -0.0107694         148.486
0.541                  -0.945484        -143.905          -49.288        -121.745         -49.2882        -121.745        -0.010923         148.417
0.542                   -1.01425        -144.305         -48.9868        -125.232         -48.9869        -125.231       -0.0110819         148.349
0.543                   -1.08378        -144.657         -48.7037        -128.834         -48.7038        -128.834       -0.0112455          148.28
0.544                   -1.15273        -144.956         -48.4412        -132.543         -48.4413        -132.542       -0.0114128         148.211
0.545                   -1.21957        -145.201         -48.2018        -136.343         -48.2018        -136.343       -0.0115829         148.142
0.546                   -1.28259        -145.393         -47.9875        -140.219         -47.9876        -140.219       -0.0117545         148.073
0.547                    -1.3401        -145.535         -47.8001        -144.151         -47.8001        -144.151       -0.0119262         148.004
0.548                   -1.39051        -145.635         -47.6406        -148.117         -47.6406        -148.117       -0.0120968         147.935
0.549                   -1.43246          -145.7         -47.5098        -152.095         -47.5098        -152.095       -0.0122647         147.866
0.55                    -1.46499        -145.744         -47.4076         -156.06         -47.4076         -156.06       -0.0124288         147.797
0.551                   -1.48759        -145.777         -47.3332         -159.99         -47.3333         -159.99       -0.0125882         147.727
0.552                   -1.50022        -145.814         -47.2856        -163.864         -47.2856        -163.864        -0.012742         147.658
0.553                   -1.50333        -145.865          -47.263        -167.661          -47.263        -167.662       -0.0128899         147.589
0.554                   -1.49772        -145.942         -47.2632        -171.367         -47.2632        -171.367       -0.0130316         147.519
0.555                   -1.48451        -146.053         -47.2838        -174.967         -47.2838        -174.967       -0.0131674         147.449
0.556                   -1.46495        -146.204         -47.3222        -178.451         -47.3222        -178.451       -0.0132975          147.38
0.557                   -1.44035        -146.399          -47.376         178.188         -47.3759         178.188       -0.0134224          147.31
0.558                     -1.412        -146.639         -47.4424         174.953         -47.4423         174.953       -0.0135428          147.24
0.559                   -1.38108        -146.926          -47.519         171.846          -47.519         171.846       -0.0136593         147.169
0.56                    -1.34862        -147.257         -47.6035         168.867         -47.6035         168.867       -0.0137726         147.099
0.561                   -1.31551         -147.63         -47.6939         166.012         -47.6939         166.012       -0.0138835         147.029
0.562                   -1.28246        -148.043         -47.7883         163.279         -47.7883         163.279       -0.0139925         146.958
0.563                   -1.25005        -148.493         -47.8851         160.663          -47.885         160.663       -0.0141002         146.887
0.564                   -1.21873        -148.977         -47.9827         158.157         -47.9826         158.158       -0.0142073         146.816
0.565                   -1.18881        -149.491         -48.0799         155.757         -48.0799         155.758       -0.0143141         146.745
0.566                   -1.16052        -150.033         -48.1758         153.457         -48.1757         153.457       -0.0144211         146.674
0.567                   -1.13403        -150.601         -48.2693         151.249         -48.2693          151.25       -0.0145287         146.603
0.568                   -1.10942        -151.191         -48.3598         149.129         -48.3598          149.13       -0.0146371         146.531
0.569                   -1.08675        -151.801         -48.4467          147.09         -48.4466         147.091       -0.0147467          146.46
0.57                    -1.06604        -152.431         -48.5294         145.127         -48.5293         145.127       -0.0148576         146.388
0.571                   -1.04726        -153.077         -48.6075         143.233         -48.6074         143.234         -0.01497         146.316
0.572                    -1.0304         -153.74         -48.6808         141.405         -48.6807         141.406       -0.0150841         146.244
0.573                   -1.01541        -154.417         -48.7489         139.637         -48.7488         139.638       -0.0151999         146.172
0.574                   -1.00225        -155.107         -48.8117         137.924         -48.8116         137.925       -0.0153177         146.099
0.575                  -0.990871        -155.811          -48.869         136.263         -48.8689         136.264       -0.0154374         146.027
0.576                  -0.981219        -156.526         -48.9207         134.649         -48.9206          134.65       -0.0155592         145.954
0.577                  -0.973245        -157.253         -48.9668         133.079         -48.9667          133.08        -0.015683         145.881
0.578                  -0.966905        -157.991         -49.0072         131.548         -49.0071         131.549        -0.015809         145.808
0.579                  -0.962153        -158.739         -49.0419         130.054         -49.0418         130.055       -0.0159372         145.735
0.58                   -0.958952        -159.498         -49.0708         128.594         -49.0707         128.595       -0.0160676         145.662
0.581                  -0.957268        -160.268         -49.0941         127.164          -49.094         127.166       -0.0162002         145.588
0.582                   -0.95707        -161.047         -49.1117         125.763         -49.1116         125.764       -0.0163351         145.515
0.583                  -0.958337        -161.836         -49.1237         124.387         -49.1235         124.388       -0.0164723         145.441
0.584                  -0.961048        -162.635           -49.13         123.035         -49.1299         123.036       -0.0166119         145.367
0.585                  -0.965193        -163.445         -49.1309         121.703         -49.1308         121.704       -0.0167537         145.293
0.586                  -0.970762        -164.264         -49.1262          120.39         -49.1261         120.392       -0.0168979         145.219
0.587                  -0.977756        -165.093         -49.1161         119.095          -49.116         119.096       -0.0170445         145.144
0.588                  -0.986177        -165.933         -49.1007         117.814         -49.1006         117.815       -0.0171935         145.069
0.589                  -0.996036        -166.783           -49.08         116.547         -49.0799         116.548       -0.0173449         144.995
0.59                    -1.00735        -167.644          -49.054         115.291         -49.0539         115.292       -0.0174987          144.92
0.591                   -1.02013        -168.515         -49.0229         114.046         -49.0228         114.047        -0.017655         144.845
0.592                   -1.03442        -169.398         -48.9867         112.809         -48.9866          112.81       -0.0178137         144.769
0.593                   -1.05023        -170.291         -48.9454         111.579         -48.9453          111.58        -0.017975         144.694
0.594                   -1.06762        -171.196         -48.8992         110.355         -48.8991         110.356       -0.0181388         144.618
0.595                   -1.08662        -172.113          -48.848         109.135          -48.848         109.136       -0.0183051         144.543
0.596                   -1.10728        -173.041         -48.7921         107.918          -48.792         107.919       -0.0184741         144.467
0.597                   -1.12967        -173.982         -48.7313         106.703         -48.7312         106.704       -0.0186456          144.39
0.598                   -1.15384        -174.935         -48.6659         105.489         -48.6658         105.489       -0.0188198         144.314
0.599                   -1.17987        -175.901         -48.5958         104.274         -48.5957         104.274       -0.0189966         144.238
0.6                     -1.20783         -176.88         -48.5211         103.057         -48.5211         103.057       -0.0191761         144.161
0.601                   -1.23781        -177.873         -48.4419         101.837         -48.4419         101.837       -0.0193584         144.084
0.602                    -1.2699        -178.879         -48.3583         100.613         -48.3583         100.613       -0.0195435         144.007
0.603                    -1.3042        -179.899         -48.2703          99.384         -48.2703         99.3841       -0.0197314         143.929
0.604                   -1.34083         179.067          -48.178         98.1485          -48.178         98.1486       -0.0199221         143.852
0.605                    -1.3799         178.018         -48.0815         96.9057         -48.0815         96.9057       -0.0201158         143.774
0.606                   -1.42154         176.955         -47.9808         95.6544         -47.9808         95.6543       -0.0203124         143.696
0.607                    -1.4659         175.876          -47.876         94.3935         -47.8761         94.3933       -0.0205119         143.618
0.608                   -1.51312         174.781         -47.7672          93.122         -47.7673         93.1216       -0.0207146          143.54
0.609                   -1.56337         173.672         -47.6546         91.8388         -47.6546         91.8383       -0.0209203         143.462
0.61                    -1.61682         172.546          -47.538         90.5428         -47.5381         90.5421       -0.0211292         143.383
0.611                   -1.67366         171.404         -47.4178         89.2329         -47.4179         89.2321       -0.0213412         143.304
0.612                    -1.7341         170.246         -47.2938          87.908         -47.2939         87.9071       -0.0215565         143.225
0.613                   -1.79836         169.071         -47.1664         86.5672         -47.1665         86.5661       -0.0217752         143.145
0.614                   -1.86666          167.88         -47.0355         85.2093         -47.0356         85.2081       -0.0219972         143.066
0.615                   -1.93926         166.672         -46.9012         83.8332         -46.9014         83.8319       -0.0222227         142.986
0.616                   -2.01643         165.448         -46.7638         82.4379          -46.764         82.4365       -0.0224516         142.906
0.617                   -2.09845         164.207         -46.6233         81.0223         -46.6235         81.0208       -0.0226842         142.826
0.618                   -2.18565          162.95         -46.4799         79.5855         -46.4801         79.5838       -0.0229204         142.745
0.619                   -2.27834         161.677         -46.3337         78.1262         -46.3339         78.1244       -0.0231603         142.665
0.62                    -2.37688         160.389         -46.1848         76.6436         -46.1851         76.6416       -0.0234041         142.584
0.621                   -2.48164         159.085         -46.0336         75.1365         -46.0338         75.1345       -0.0236517         142.503
0.622                   -2.59303         157.766           -45.88         73.6041         -45.8803          73.602       -0.0239033         142.421
0.623                   -2.71148         156.434         -45.7245         72.0454         -45.7247         72.0431        -0.024159         142.339
0.624                   -2.83744          155.09          -45.567         70.4595         -45.5673         70.4571       -0.0244188         142.258
0.625                   -2.97138         153.733         -45.4079         68.8455         -45.4082         68.8431       -0.0246828         142.175
0.626                   -3.11383         152.367         -45.2475         67.2027         -45.2478         67.2002       -0.0249512         142.093
0.627                   -3.26533         150.993         -45.0859         65.5304         -45.0862         65.5278        -0.025224          142.01
0.628                   -3.42645         149.613         -44.9235         63.8278         -44.9238         63.8252       -0.0255014         141.927
0.629                   -3.59779         148.229         -44.7605         62.0946         -44.7607         62.0919       -0.0257833         141.844
0.63                    -3.77998         146.845         -44.5972         60.3302         -44.5975         60.3274         -0.02607         141.761
0.631                   -3.97371         145.463         -44.4339         58.5344         -44.4342         58.5316       -0.0263616         141.677
0.632                   -4.17965         144.089         -44.2711         56.7069         -44.2713         56.7042        -0.026658         141.593
0.633                   -4.39854         142.725         -44.1089         54.8479         -44.1091         54.8451       -0.0269596         141.509
0.634                   -4.63113         141.378         -43.9478         52.9574          -43.948         52.9547       -0.0272662         141.424
0.635                   -4.87819         140.054         -43.7881         51.0359         -43.7883         51.0332       -0.0275782          141.34
0.636                   -5.14051         138.759         -43.6302         49.0838         -43.6304         49.0811       -0.0278955         141.254
0.637                    -5.4189         137.502         -43.4744         47.1019         -43.4746         47.0993       -0.0282182         141.169
0.638                   -5.71416         136.293         -43.3212         45.0911         -43.3214         45.0887       -0.0285465         141.083
0.639                   -6.02708         135.141         -43.1709         43.0527         -43.1711         43.0504       -0.0288805         140.997
0.64                     -6.3584         134.059         -43.0238         40.9882          -43.024          40.986       -0.0292202         140.911
0.641                   -6.70883         133.062         -42.8804          38.899         -42.8805          38.897       -0.0295657         140.825
0.642                   -7.07894         132.166         -42.7409         36.7872         -42.7411         36.7853       -0.0299172         140.738
0.643                    -7.4692         131.389         -42.6058         34.6548         -42.6059         34.6531       -0.0302746          140.65
0.644                   -7.87981         130.753         -42.4752         32.5041         -42.4753         32.5026       -0.0306381         140.563
0.645                   -8.31067         130.282         -42.3495         30.3376         -42.3495         30.3363       -0.0310078         140.475
0.646                   -8.76125         130.006         -42.2288         28.1579         -42.2289         28.1568       -0.0313836         140.387
0.647                   -9.23036         129.955         -42.1135         25.9678         -42.1135          25.967       -0.0317657         140.299
0.648                   -9.71595         130.166         -42.0037         23.7703         -42.0037         23.7696        -0.032154          140.21
0.649                   -10.2148         130.677         -41.8994         21.5681         -41.8994         21.5677       -0.0325487         140.121
0.65                    -10.7222         131.529         -41.8009         19.3644         -41.8008         19.3642       -0.0329498         140.031
0.651                   -11.2315         132.765          -41.708         17.1621          -41.708          17.162       -0.0333573         139.941
0.652                   -11.7335         134.422         -41.6209         14.9641         -41.6208         14.9642       -0.0337713         139.851
0.653                   -12.2165         136.531         -41.5394         12.7733         -41.5393         12.7735       -0.0341918         139.761
0.654                    -12.666         139.104         -41.4634         10.5923         -41.4634         10.5926       -0.0346189          139.67
0.655                   -13.0652         142.129         -41.3929         8.42386         -41.3928         8.42425       -0.0350526         139.579
0.656                   -13.3968         145.557         -41.3275          6.2703         -41.3274         6.27073        -0.035493         139.487
0.657                   -13.6445           149.3         -41.2671         4.13385          -41.267         4.13428       -0.0359402         139.395
0.658                   -13.7964         153.232         -41.2114         2.01654         -41.2113         2.01693       -0.0363942         139.303
0.659                    -13.847         157.205         -41.1601      -0.0798503           -41.16      -0.0795285       -0.0368552          139.21
0.66                    -13.7987         161.064         -41.1128        -2.15374         -41.1128        -2.15353       -0.0373232         139.117
0.661                   -13.6607         164.672         -41.0693        -4.20378         -41.0692        -4.20371       -0.0377983         139.023
0.662                   -13.4477         167.926          -41.029        -6.22885          -41.029        -6.22894       -0.0382808         138.929
0.663                   -13.1765         170.764         -40.9918        -8.22801         -40.9917        -8.22829       -0.0387707         138.835
0.664                   -12.8638         173.158         -40.9571        -10.2006          -40.957         -10.201       -0.0392682          138.74
0.665                   -12.5246         175.112         -40.9245         -12.146         -40.9245        -12.1467       -0.0397734         138.645
0.666                   -12.1714         176.649         -40.8937        -14.0639         -40.8937        -14.0648       -0.0402866         138.549
0.667                   -11.8139         177.803         -40.8643        -15.9542         -40.8642        -15.9553       -0.0408079         138.453
0.668                   -11.4592         178.612         -40.8359        -17.8168         -40.8358        -17.8181       -0.0413376         138.357
0.669                   -11.1126         179.115          -40.808        -19.6519         -40.8079        -19.6534       -0.0418758          138.26
0.67                    -10.7775          179.35         -40.7804        -21.4596         -40.7803        -21.4613       -0.0424227         138.163
0.671                   -10.4563          179.35         -40.7527        -23.2404         -40.7526        -23.2422       -0.0429787         138.065
0.672                   -10.1502         179.147         -40.7246        -24.9947         -40.7244        -24.9967        -0.043544         137.966
0.673                   -9.86001         178.767         -40.6957        -26.7231         -40.6955        -26.7252       -0.0441187         137.868
0.674                   -9.58586         178.232         -40.6658        -28.4263         -40.6656        -28.4285       -0.0447032         137.768
0.675                   -9.32767         177.563         -40.6346        -30.1049         -40.6344        -30.1073       -0.0452977         137.668
0.676                   -9.08512         176.776         -40.6019        -31.7599         -40.6017        -31.7623       -0.0459024         137.568
0.677                   -8.85775         175.886         -40.5674        -33.3921         -40.5671        -33.3946       -0.0465178         137.467
0.678                   -8.64503         174.906         -40.5309        -35.0025         -40.5307        -35.0049        -0.047144         137.366
0.679                   -8.44635         173.845         -40.4922        -36.5919          -40.492        -36.5944       -0.0477813         137.264
0.68                    -8.26111         172.713         -40.4512        -38.1615          -40.451        -38.1639       -0.0484301         137.162
0.681                    -8.0887         171.517         -40.4077        -39.7122         -40.4075        -39.7147       -0.0490906         137.059
0.682                   -7.92854         170.264         -40.3616        -41.2452         -40.3613        -41.2476       -0.0497632         136.955
0.683                   -7.78006         168.958         -40.3126        -42.7615         -40.3124        -42.7639       -0.0504481         136.851
0.684                    -7.6427         167.606         -40.2608        -44.2624         -40.2605        -44.2647       -0.0511458         136.747
0.685                   -7.51596          166.21          -40.206        -45.7488         -40.2057        -45.7512       -0.0518564         136.641
0.686                   -7.39937         164.773         -40.1481        -47.2221         -40.1478        -47.2243       -0.0525804         136.535
0.687                   -7.29248           163.3          -40.087        -48.6833         -40.0868        -48.6855       -0.0533182         136.429
0.688                   -7.19488         161.791         -40.0228        -50.1336         -40.0225        -50.1357       -0.0540699         136.322
0.689                   -7.10619         160.248         -39.9552        -51.5741          -39.955        -51.5762       -0.0548361         136.214
0.69                    -7.02607         158.674         -39.8843        -53.0061         -39.8841         -53.008       -0.0556171         136.106
0.691                    -6.9542         157.068         -39.8101        -54.4306         -39.8099        -54.4325       -0.0564133         135.997
0.692                   -6.89029         155.433         -39.7325        -55.8489         -39.7323        -55.8508        -0.057225         135.887
0.693                    -6.8341         153.769         -39.6515        -57.2621         -39.6513        -57.2639       -0.0580527         135.777
0.694                   -6.78538         152.075          -39.567        -58.6713         -39.5669         -58.673       -0.0588968         135.666
0.695                   -6.74394         150.353         -39.4791        -60.0778          -39.479        -60.0794       -0.0597576         135.555
0.696                   -6.70959         148.603         -39.3878        -61.4825         -39.3877        -61.4841       -0.0606357         135.442