! TOUCHSTONE file generated by CST MICROWAVE STUDIO
! Date and time: Thu Feb 11 19:33:00 2021
! Project name: Scenario_1_Planar_Body_Tissue_Out_of_Line.cst
! Parameters = {L_HA=400; Ltissue=1000; MT=2.54; Rad_Dielectric=30; Rad_Lower=7.3; Rad_Upper=30; Wtissue=1000; a_HA=580; a_WG=246; b_HA=500; b_WG=121; c_HA=0; c_WG=187; d_feed=85; dx1=346; dy1=-69.2; h_feed=15; h_lower=18; h_upper=40; hfat=3; hgap=25; hmuscle=50; hskin=1.5}
! Header version: 2018
! Port assignment regex: !\s*Touchstone port\s*([0-9]+)\s*=\s*(CST MWS port|CST DS port)\s*([0-9]+|Zmin|Zmax)\s*\(\"(.*)\"\)(\s*mode\s*([0-9]+))?.*
! Touchstone port assignment:
! Touchstone port 1 = CST MWS port 1 ("")
! Touchstone port 2 = CST MWS port 2 ("")
# GHz S DB R 50
0.5                     -0.27095        -121.516         -55.5895         33.2787         -55.5894         33.2787      -0.00803302         151.146
0.501                  -0.272009        -121.902         -55.5805         31.2205         -55.5804         31.2224      -0.00810173         151.081
0.502                   -0.27309        -122.291         -55.5677         29.1737         -55.5678         29.1772      -0.00817065         151.016
0.503                  -0.274194        -122.682         -55.5512         27.1392         -55.5514         27.1441      -0.00823981          150.95
0.504                  -0.275322        -123.077          -55.531         25.1179         -55.5313         25.1241      -0.00830921         150.885
0.505                  -0.276475        -123.474         -55.5072         23.1107         -55.5074          23.118      -0.00837886          150.82
0.506                  -0.277655        -123.873         -55.4797         21.1185           -55.48         21.1267      -0.00844877         150.754
0.507                  -0.278864        -124.276         -55.4486         19.1419          -55.449         19.1509      -0.00851895         150.689
0.508                  -0.280102        -124.681         -55.4139         17.1817         -55.4144         17.1913      -0.00858941         150.623
0.509                  -0.281373        -125.089         -55.3759         15.2385         -55.3763         15.2486      -0.00866017         150.558
0.51                   -0.282677          -125.5         -55.3344          13.313         -55.3349         13.3234      -0.00873122         150.492
0.511                  -0.284016        -125.914         -55.2896         11.4057         -55.2901         11.4164      -0.00880258         150.426
0.512                  -0.285393        -126.332         -55.2415         9.51718          -55.242         9.52788      -0.00887427          150.36
0.513                  -0.286809        -126.752         -55.1903         7.64777         -55.1908         7.65842      -0.00894629         150.294
0.514                  -0.288266        -127.175         -55.1359         5.79787         -55.1365         5.80839      -0.00901865         150.228
0.515                  -0.289768        -127.602         -55.0786         3.96783         -55.0791          3.9781      -0.00909137         150.162
0.516                  -0.291315        -128.031         -55.0183          2.1579         -55.0189         2.16783      -0.00916445         150.096
0.517                  -0.292912        -128.464         -54.9552        0.368295         -54.9558        0.377805      -0.00923791         150.029
0.518                  -0.294559        -128.901         -54.8894        -1.40081         -54.8899         -1.3918      -0.00931176         149.963
0.519                  -0.296261         -129.34         -54.8209        -3.14932         -54.8213        -3.14088      -0.00938601         149.896
0.52                    -0.29802        -129.783         -54.7498        -4.87716         -54.7502        -4.86935      -0.00946067          149.83
0.521                  -0.299839         -130.23         -54.6762        -6.58431         -54.6765         -6.5772      -0.00953575         149.763
0.522                   -0.30172         -130.68         -54.6001         -8.2708         -54.6005        -8.26443      -0.00961126         149.696
0.523                  -0.303669        -131.134         -54.5218        -9.93669          -54.522        -9.93112      -0.00968723          149.63
0.524                  -0.305687        -131.592         -54.4411        -11.5821         -54.4413        -11.5774      -0.00976365         149.563
0.525                   -0.30778        -132.053         -54.3583        -13.2071         -54.3584        -13.2033      -0.00984054         149.496
0.526                   -0.30995        -132.518         -54.2733         -14.812         -54.2734        -14.8091      -0.00991792         149.428
0.527                  -0.312202        -132.988         -54.1863        -16.3969         -54.1863        -16.3949       -0.0099958         149.361
0.528                  -0.314541        -133.461         -54.0972        -17.9621         -54.0972         -17.961       -0.0100742         149.294
0.529                   -0.31697        -133.938         -54.0063        -19.5078         -54.0061        -19.5076       -0.0101531         149.226
0.53                   -0.319496        -134.419         -53.9134        -21.0343         -53.9132        -21.0351       -0.0102325         149.159
0.531                  -0.322122        -134.905         -53.8187        -22.5419         -53.8184        -22.5437       -0.0103125         149.091
0.532                  -0.324855        -135.395         -53.7223         -24.031         -53.7219        -24.0338       -0.0103931         149.023
0.533                  -0.327701        -135.889         -53.6241        -25.5018         -53.6236        -25.5056       -0.0104742         148.956
0.534                  -0.330664        -136.388         -53.5242        -26.9548         -53.5236        -26.9596       -0.0105559         148.888
0.535                  -0.333752        -136.892         -53.4226        -28.3903          -53.422        -28.3961       -0.0106383          148.82
0.536                  -0.336972          -137.4         -53.3195        -29.8087         -53.3187        -29.8155       -0.0107212         148.752
0.537                  -0.340331        -137.913         -53.2147        -31.2104         -53.2139        -31.2182       -0.0108048         148.683
0.538                  -0.343837        -138.431         -53.1084        -32.5959         -53.1075        -32.6046        -0.010889         148.615
0.539                  -0.347496        -138.953         -53.0005        -33.9655         -52.9995        -33.9752       -0.0109739         148.547
0.54                   -0.351319        -139.481         -52.8911        -35.3196         -52.8901        -35.3303       -0.0110595         148.478
0.541                  -0.355315        -140.015         -52.7802        -36.6588         -52.7791        -36.6704       -0.0111458         148.409
0.542                  -0.359492        -140.553         -52.6678        -37.9834         -52.6666        -37.9959       -0.0112327         148.341
0.543                  -0.363862        -141.097         -52.5539        -39.2939         -52.5527        -39.3073       -0.0113204         148.272
0.544                  -0.368435        -141.647         -52.4386        -40.5908         -52.4373         -40.605       -0.0114089         148.203
0.545                  -0.373223        -142.202         -52.3218        -41.8745         -52.3204        -41.8896       -0.0114981         148.134
0.546                  -0.378238        -142.763         -52.2035        -43.1454         -52.2021        -43.1613        -0.011588         148.064
0.547                  -0.383494         -143.33         -52.0837        -44.4041         -52.0823        -44.4208       -0.0116788         147.995
0.548                  -0.389004        -143.904         -51.9625         -45.651          -51.961        -45.6685       -0.0117704         147.926
0.549                  -0.394783        -144.483         -51.8398        -46.8866         -51.8382        -46.9048       -0.0118628         147.856
0.55                   -0.400848        -145.069         -51.7156        -48.1113          -51.714        -48.1303        -0.011956         147.786
0.551                  -0.407215        -145.662         -51.5899        -49.3257         -51.5882        -49.3454       -0.0120502         147.717
0.552                  -0.413902        -146.261         -51.4626        -50.5302         -51.4609        -50.5506       -0.0121451         147.647
0.553                  -0.420929        -146.868         -51.3339        -51.7253         -51.3321        -51.7463        -0.012241         147.577
0.554                  -0.428317        -147.481         -51.2035        -52.9116         -51.2018        -52.9332       -0.0123378         147.506
0.555                  -0.436087        -148.102         -51.0716        -54.0895         -51.0698        -54.1117       -0.0124356         147.436
0.556                  -0.444264         -148.73         -50.9381        -55.2595         -50.9363        -55.2822       -0.0125343         147.366
0.557                  -0.452872        -149.366          -50.803        -56.4221         -50.8011        -56.4453        -0.012634         147.295
0.558                   -0.46194         -150.01         -50.6662        -57.5779         -50.6643        -57.6016       -0.0127347         147.225
0.559                  -0.471495        -150.662         -50.5277        -58.7273         -50.5258        -58.7515       -0.0128364         147.154
0.56                    -0.48157        -151.322         -50.3874         -59.871         -50.3856        -59.8956       -0.0129392         147.083
0.561                  -0.492197        -151.991         -50.2455        -61.0094         -50.2436        -61.0344        -0.013043         147.012
0.562                  -0.503414        -152.669         -50.1017        -62.1431         -50.0999        -62.1684       -0.0131479         146.941
0.563                  -0.515258        -153.356         -49.9561        -63.2727         -49.9543        -63.2983       -0.0132539         146.869
0.564                  -0.527771        -154.052         -49.8087        -64.3988         -49.8069        -64.4246       -0.0133611         146.798
0.565                  -0.540998        -154.758         -49.6593        -65.5219         -49.6575        -65.5479       -0.0134695         146.726
0.566                  -0.554988        -155.473          -49.508        -66.6426         -49.5062        -66.6688        -0.013579         146.655
0.567                  -0.569792        -156.199         -49.3547        -67.7615         -49.3529        -67.7879       -0.0136897         146.583
0.568                  -0.585466        -156.935         -49.1993        -68.8794         -49.1976        -68.9059       -0.0138017         146.511
0.569                  -0.602072        -157.682         -49.0419        -69.9968         -49.0402        -70.0234        -0.013915         146.439
0.57                   -0.619674         -158.44         -48.8823        -71.1144         -48.8807         -71.141       -0.0140296         146.366
0.571                  -0.638343        -159.209         -48.7205         -72.233          -48.719        -72.2595       -0.0141455         146.294
0.572                  -0.658155        -159.989         -48.5566        -73.3531         -48.5551        -73.3796       -0.0142628         146.221
0.573                  -0.679194        -160.782         -48.3903        -74.4757         -48.3889         -74.502       -0.0143816         146.149
0.574                  -0.701547        -161.587         -48.2217        -75.6014         -48.2204        -75.6276       -0.0145017         146.076
0.575                  -0.725313        -162.405         -48.0508         -76.731         -48.0495         -76.757       -0.0146234         146.003
0.576                  -0.750595        -163.235         -47.8774        -77.8655         -47.8762        -77.8912       -0.0147465          145.93
0.577                  -0.777509        -164.079         -47.7016        -79.0056         -47.7004         -79.031       -0.0148713         145.856
0.578                  -0.806176        -164.937         -47.5232        -80.1522         -47.5221        -80.1773       -0.0149977         145.783
0.579                  -0.836731        -165.809         -47.3422        -81.3064         -47.3412        -81.3311       -0.0151257         145.709
0.58                   -0.869319        -166.695         -47.1587        -82.4691         -47.1577        -82.4933       -0.0152555         145.635
0.581                  -0.904097        -167.595         -46.9725        -83.6413         -46.9716         -83.665        -0.015387         145.561
0.582                  -0.941238        -168.511         -46.7836        -84.8241         -46.7827        -84.8473       -0.0155204         145.487
0.583                  -0.980928        -169.442         -46.5919        -86.0187         -46.5912        -86.0413       -0.0156556         145.413
0.584                   -1.02337        -170.388         -46.3975        -87.2262         -46.3968        -87.2482       -0.0157929         145.339
0.585                   -1.06878         -171.35         -46.2003        -88.4478         -46.1997        -88.4691       -0.0159322         145.264
0.586                    -1.1174        -172.329         -46.0002         -89.685         -45.9997        -89.7056       -0.0160736         145.189
0.587                   -1.16949        -173.323         -45.7973         -90.939         -45.7968        -90.9588       -0.0162173         145.114
0.588                   -1.22533        -174.333         -45.5915        -92.2113         -45.5911        -92.2303       -0.0163633         145.039
0.589                   -1.28522        -175.359         -45.3829        -93.5034         -45.3826        -93.5215       -0.0165117         144.964
0.59                    -1.34951        -176.402         -45.1714        -94.8169         -45.1711         -94.834       -0.0166627         144.888
0.591                   -1.41854         -177.46          -44.957        -96.1534         -44.9568        -96.1695       -0.0168163         144.812
0.592                   -1.49272        -178.533         -44.7398        -97.5147         -44.7397        -97.5297       -0.0169728         144.736
0.593                   -1.57245        -179.621         -44.5199        -98.9025         -44.5198        -98.9165       -0.0171323          144.66
0.594                   -1.65819         179.276         -44.2972        -100.319         -44.2972        -100.332       -0.0172948         144.584
0.595                   -1.75044         178.161         -44.0719        -101.765         -44.0719        -101.777       -0.0174608         144.508
0.596                   -1.84972         177.035          -43.844        -103.245          -43.844        -103.255       -0.0176302         144.431
0.597                   -1.95658         175.899         -43.6137        -104.758         -43.6137        -104.767       -0.0178034         144.354
0.598                   -2.07163         174.755         -43.3811        -106.309         -43.3812        -106.316       -0.0179807         144.277
0.599                    -2.1955         173.605         -43.1463        -107.898         -43.1465        -107.905       -0.0181622           144.2
0.6                     -2.32886         172.454         -42.9097        -109.528         -42.9098        -109.534       -0.0183482         144.122
0.601                   -2.47241         171.306         -42.6714        -111.202         -42.6715        -111.207       -0.0185391         144.045
0.602                   -2.62687         170.163         -42.4318        -112.922         -42.4318        -112.925       -0.0187353         143.967
0.603                   -2.79298         169.033          -42.191        -114.691         -42.1911        -114.692        -0.018937         143.889
0.604                   -2.97147         167.922         -41.9496        -116.509         -41.9496        -116.509       -0.0191447          143.81
0.605                   -3.16309         166.837         -41.7079        -118.381         -41.7078         -118.38       -0.0193587         143.732
0.606                   -3.36853         165.787         -41.4664        -120.307         -41.4662        -120.305       -0.0195795         143.653
0.607                   -3.58841         164.784         -41.2256         -122.29         -41.2254        -122.286       -0.0198075         143.574
0.608                   -3.82326         163.839         -40.9861        -124.332         -40.9857        -124.327       -0.0200432         143.495
0.609                   -4.07347         162.966         -40.7485        -126.434          -40.748        -126.427       -0.0202869         143.415
0.61                    -4.33921         162.181         -40.5135        -128.597          -40.513        -128.589        -0.020539         143.336
0.611                   -4.62036         161.502         -40.2819        -130.822         -40.2812        -130.814       -0.0207999         143.256
0.612                   -4.91642         160.949         -40.0545        -133.109         -40.0536          -133.1       -0.0210699         143.176
0.613                    -5.2264         160.544         -39.8321        -135.459          -39.831        -135.449       -0.0213492         143.096
0.614                   -5.54868         160.309         -39.6155        -137.869         -39.6143        -137.859       -0.0216379         143.015
0.615                   -5.88089          160.27         -39.4057         -140.34         -39.4044        -140.329       -0.0219359         142.935
0.616                    -6.2197         160.451         -39.2036        -142.868         -39.2021        -142.857       -0.0222433         142.854
0.617                   -6.56073         160.874         -39.0101         -145.45         -39.0083        -145.438       -0.0225595         142.773
0.618                   -6.89844          161.56          -38.826        -148.082         -38.8241        -148.071       -0.0228843         142.691
0.619                   -7.22605         162.523         -38.6521         -150.76           -38.65        -150.749       -0.0232168          142.61
0.62                    -7.53571         163.767         -38.4892        -153.477          -38.487        -153.467       -0.0235564         142.528
0.621                   -7.81877         165.285          -38.338        -156.229         -38.3357        -156.219       -0.0239021         142.446
0.622                   -8.06634         167.055          -38.199        -159.007         -38.1965        -158.998       -0.0242528         142.364
0.623                   -8.27001         169.038         -38.0726        -161.804           -38.07        -161.796       -0.0246075         142.282
0.624                   -8.42279         171.179          -37.959        -164.613         -37.9563        -164.605       -0.0249651           142.2
0.625                   -8.51994         173.412         -37.8584        -167.424         -37.8556        -167.418       -0.0253244         142.117
0.626                   -8.55965         175.661         -37.7707        -170.231         -37.7679        -170.225       -0.0256844         142.034
0.627                   -8.54321         177.852         -37.6956        -173.025         -37.6928         -173.02       -0.0260443         141.951
0.628                   -8.47478         179.919         -37.6328        -175.797         -37.6301        -175.793       -0.0264032         141.868
0.629                    -8.3607        -178.195         -37.5819        -178.542         -37.5791        -178.539       -0.0267606         141.784
0.63                    -8.20871        -176.528          -37.542         178.748         -37.5394          178.75       -0.0271161         141.701
0.631                   -8.02695        -175.104         -37.5126         176.079           -37.51          176.08       -0.0274694         141.617
0.632                   -7.82338        -173.932         -37.4927         173.456         -37.4902         173.456       -0.0278206         141.532
0.633                   -7.60518        -173.012         -37.4815         170.884         -37.4791         170.883       -0.0281698         141.448
0.634                   -7.37852        -172.333          -37.478         168.365         -37.4758         168.363       -0.0285171         141.363
0.635                   -7.14852        -171.881         -37.4813         165.902         -37.4792           165.9        -0.028863         141.278
0.636                    -6.9192        -171.636         -37.4903         163.498         -37.4885         163.496       -0.0292079         141.192
0.637                   -6.69366         -171.58         -37.5043         161.154         -37.5026         161.151       -0.0295524         141.107
0.638                   -6.47417        -171.693         -37.5222         158.869         -37.5207         158.866       -0.0298969         141.021
0.639                   -6.26235        -171.956         -37.5433         156.645         -37.5419         156.642       -0.0302421         140.934
0.64                    -6.05929        -172.353         -37.5666         154.479         -37.5654         154.476       -0.0305886         140.848
0.641                   -5.86567        -172.869         -37.5914         152.372         -37.5903         152.369       -0.0309368         140.761
0.642                   -5.68185        -173.488         -37.6169         150.321         -37.6161         150.319       -0.0312875         140.673
0.643                   -5.50793        -174.199         -37.6426         148.325         -37.6419         148.323        -0.031641         140.585
0.644                   -5.34388        -174.991         -37.6679         146.382         -37.6673          146.38        -0.031998         140.497
0.645                   -5.18951        -175.855         -37.6921         144.489         -37.6917         144.488       -0.0323589         140.409
0.646                   -5.04456        -176.782         -37.7148         142.645         -37.7145         142.643       -0.0327242          140.32
0.647                   -4.90872        -177.766         -37.7356         140.845         -37.7354         140.845       -0.0330943         140.231
0.648                   -4.78163        -178.799          -37.754         139.089          -37.754         139.089       -0.0334696         140.141
0.649                   -4.66293        -179.878         -37.7699         137.373         -37.7699         137.374       -0.0338505         140.052
0.65                    -4.55223         179.003         -37.7828         135.695         -37.7829         135.696       -0.0342373         139.961
0.651                   -4.44918         177.846         -37.7925         134.052         -37.7927         134.054       -0.0346305         139.871
0.652                   -4.35339         176.656         -37.7987         132.442         -37.7991         132.445       -0.0350302          139.78
0.653                   -4.26453         175.434         -37.8015         130.863         -37.8018         130.865       -0.0354368         139.688
0.654                   -4.18227         174.184         -37.8004         129.311         -37.8009         129.314       -0.0358506         139.596
0.655                   -4.10628         172.906         -37.7955         127.784          -37.796         127.788       -0.0362718         139.504
0.656                   -4.03628         171.603         -37.7867         126.281         -37.7872         126.285       -0.0367007         139.412
0.657                   -3.97199         170.275         -37.7738         124.798         -37.7743         124.804       -0.0371376         139.319
0.658                   -3.91316         168.923         -37.7567         123.335         -37.7573         123.341       -0.0375826         139.225
0.659                   -3.85955         167.549         -37.7356         121.888         -37.7362         121.894       -0.0380362         139.131
0.66                    -3.81095         166.153         -37.7103         120.456         -37.7109         120.463       -0.0384984         139.037
0.661                   -3.76716         164.734         -37.6808         119.037         -37.6814         119.044       -0.0389695         138.942
0.662                   -3.72801         163.294         -37.6471         117.628         -37.6477         117.636       -0.0394497         138.847
0.663                   -3.69333         161.832         -37.6093         116.229         -37.6099         116.238       -0.0399393         138.751
0.664                   -3.66298         160.348         -37.5674         114.838         -37.5679         114.847       -0.0404385         138.655
0.665                   -3.63684         158.843         -37.5213         113.452         -37.5219         113.461       -0.0409476         138.559
0.666                   -3.61479         157.315         -37.4712         112.071         -37.4718         112.081       -0.0414667         138.462
0.667                   -3.59673         155.764         -37.4172         110.693         -37.4176         110.702       -0.0419961         138.365
0.668                   -3.58259         154.191         -37.3591         109.316         -37.3596         109.325       -0.0425361         138.267
0.669                   -3.57228         152.594         -37.2973         107.938         -37.2977         107.948       -0.0430869         138.168
0.67                    -3.56576         150.972         -37.2316          106.56          -37.232          106.57       -0.0436487         138.069
0.671                   -3.56297         149.326         -37.1622         105.178         -37.1626         105.189       -0.0442218          137.97
0.672                   -3.56389         147.654         -37.0892         103.793         -37.0895         103.803       -0.0448064          137.87
0.673                    -3.5685         145.955         -37.0127         102.402          -37.013         102.413       -0.0454029          137.77
0.674                   -3.57677         144.229         -36.9327         101.006          -36.933         101.016       -0.0460115         137.669
0.675                   -3.58872         142.475         -36.8495          99.601         -36.8497         99.6112       -0.0466324         137.567
0.676                   -3.60436         140.692          -36.763         98.1879         -36.7631          98.198        -0.047266         137.465
0.677                   -3.62371         138.878         -36.6734         96.7652         -36.6735         96.7751       -0.0479126         137.363
0.678                   -3.64679         137.033         -36.5808         95.3318         -36.5809         95.3415       -0.0485724          137.26
0.679                   -3.67366         135.155         -36.4854         93.8868         -36.4854         93.8963       -0.0492458         137.156
0.68                    -3.70436         133.243         -36.3872         92.4292         -36.3872         92.4385       -0.0499331         137.052
0.681                   -3.73895         131.296         -36.2865         90.9582         -36.2864         90.9672       -0.0506345         136.947
0.682                   -3.77751         129.312         -36.1833         89.4729         -36.1832         89.4816       -0.0513506         136.842
0.683                    -3.8201          127.29         -36.0778         87.9725         -36.0776         87.9809       -0.0520815         136.736
0.684                   -3.86683         125.229         -35.9701         86.4562           -35.97         86.4642       -0.0528277         136.629
0.685                   -3.91777         123.126         -35.8605         84.9233         -35.8603          84.931       -0.0535895         136.522
0.686                   -3.97305         120.981          -35.749         83.3731         -35.7488         83.3804       -0.0543674         136.414
0.687                   -4.03276         118.791         -35.6358          81.805         -35.6356          81.812       -0.0551616         136.306
0.688                   -4.09702         116.555         -35.5212         80.2184          -35.521          80.225       -0.0559726         136.197
0.689                   -4.16595          114.27         -35.4053         78.6128          -35.405          78.619       -0.0568009         136.087
0.69                    -4.23969         111.936         -35.2882         76.9877          -35.288         76.9934       -0.0576468         135.977
0.691                   -4.31835         109.548         -35.1702         75.3428           -35.17          75.348       -0.0585108         135.866
0.692                   -4.40209         107.107         -35.0515         73.6775         -35.0513         73.6823       -0.0593933         135.754
0.693                   -4.49102         104.608         -34.9322         71.9917          -34.932         71.9961       -0.0602949         135.641
0.694                   -4.58528          102.05         -34.8127         70.2852         -34.8124         70.2892        -0.061216         135.528
0.695                   -4.68501         99.4309         -34.6929         68.5578         -34.6927         68.5614        -0.062157         135.414
0.696                   -4.79032          96.747         -34.5733         66.8095         -34.5731         66.8126       -0.0631186         135.299