! TOUCHSTONE file generated by CST MICROWAVE STUDIO
! Date and time: Mon Nov 30 08:35:50 2020
! Project name: Scenario_1_Planar_Body_Tissue_Out_of_Line.cst
! Parameters = {dy1=-69.2; L_HA=400; Ltissue=700; MT=2.54; Rad_Dielectric=30; Rad_Lower=7.3; Rad_Upper=30; Wtissue=700; a_HA=580; a_WG=246; b_HA=500; b_WG=121; c_HA=0; c_WG=187; d_feed=85; dx1=866; h_feed=15; h_lower=18; h_upper=40; hfat=3; hgap=25; hmuscle=50; hskin=1.5}
! Header version: 2018
! Port assignment regex: !\s*Touchstone port\s*([0-9]+)\s*=\s*(CST MWS port|CST DS port)\s*([0-9]+|Zmin|Zmax)\s*\(\"(.*)\"\)(\s*mode\s*([0-9]+))?.*
! Touchstone port assignment:
! Touchstone port 1 = CST MWS port 1 ("")
! Touchstone port 2 = CST MWS port 2 ("")
# GHz S DB R 50
0.5                     -0.10019        -122.139         -63.5864         106.525          -63.584         106.541      -0.00750603         151.154
0.501                  -0.105982        -122.602         -63.3283         104.984         -63.3262         104.999      -0.00757317         151.088
0.502                  -0.112137        -123.069         -63.0654         103.399         -63.0634         103.412       -0.0076415         151.023
0.503                  -0.118694        -123.539         -62.7976         101.766         -62.7958         101.778      -0.00771107         150.958
0.504                  -0.125698        -124.014          -62.525         100.083         -62.5234         100.094      -0.00778193         150.892
0.505                  -0.133197        -124.492         -62.2478         98.3472         -62.2464         98.3574      -0.00785415         150.827
0.506                  -0.141247        -124.974          -61.966          96.556         -61.9647         96.5652      -0.00792778         150.761
0.507                  -0.149907         -125.46         -61.6797         94.7061         -61.6786         94.7144      -0.00800287         150.695
0.508                  -0.159245         -125.95         -61.3893         92.7944         -61.3883         92.8018      -0.00807951         150.629
0.509                  -0.169336        -126.445         -61.0949         90.8174          -61.094         90.8239      -0.00815774         150.564
0.51                   -0.180261        -126.942         -60.7968         88.7715         -60.7961         88.7772      -0.00823764         150.498
0.511                  -0.192108        -127.444         -60.4954          86.653         -60.4948          86.658      -0.00831925         150.432
0.512                  -0.204974        -127.948         -60.1912         84.4581         -60.1908         84.4624      -0.00840264         150.366
0.513                  -0.218961        -128.456         -59.8847          82.183         -59.8844         82.1866      -0.00848786         150.299
0.514                  -0.234177        -128.965         -59.5766         79.8237         -59.5763         79.8267      -0.00857493         150.233
0.515                  -0.250732        -129.477         -59.2675         77.3764         -59.2674         77.3789      -0.00866389         150.167
0.516                  -0.268737        -129.989         -58.9584         74.8375         -58.9584         74.8395      -0.00875475           150.1
0.517                  -0.288296        -130.501         -58.6502         72.2036         -58.6503         72.2051       -0.0088475         150.034
0.518                  -0.309503        -131.012         -58.3441         69.4716         -58.3442         69.4728      -0.00894211         149.967
0.519                  -0.332433        -131.519         -58.0412         66.6392         -58.0414           66.64      -0.00903852         149.901
0.52                   -0.357126        -132.022          -57.743         63.7047         -57.7432         63.7052      -0.00913665         149.834
0.521                  -0.383582        -132.517         -57.4509         60.6674         -57.4511         60.6677      -0.00923638         149.767
0.522                   -0.41174        -133.004         -57.1666         57.5279         -57.1669          57.528      -0.00933758           149.7
0.523                  -0.441462        -133.478         -56.8917          54.288         -56.8921         54.2879      -0.00944006         149.633
0.524                  -0.472522        -133.939         -56.6281         50.9512         -56.6285         50.9511      -0.00954364         149.566
0.525                  -0.504588        -134.383         -56.3775         47.5229         -56.3779         47.5227      -0.00964807         149.499
0.526                   -0.53722        -134.807         -56.1416         44.0103          -56.142           44.01      -0.00975313         149.432
0.527                   -0.56987        -135.212         -55.9222         40.4226         -55.9226         40.4222      -0.00985857         149.365
0.528                    -0.6019        -135.595         -55.7206         36.7708          -55.721         36.7703      -0.00996413         149.297
0.529                  -0.632614        -135.957         -55.5382         33.0679         -55.5386         33.0673       -0.0100696          149.23
0.53                     -0.6613        -136.299         -55.3759         29.3281         -55.3763         29.3275       -0.0101747         149.162
0.531                  -0.687284        -136.624         -55.2345         25.5671         -55.2349         25.5664       -0.0102793         149.095
0.532                  -0.709987        -136.936         -55.1142         21.8008         -55.1145            21.8       -0.0103832         149.027
0.533                  -0.728972        -137.238         -55.0148         18.0456         -55.0152         18.0447       -0.0104864         148.959
0.534                  -0.743984        -137.535          -54.936         14.3173         -54.9363         14.3165       -0.0105886         148.891
0.535                  -0.754956        -137.834          -54.877         10.6312         -54.8772         10.6302       -0.0106899         148.823
0.536                  -0.762013        -138.139         -54.8364         7.00079         -54.8367         6.99978       -0.0107904         148.755
0.537                  -0.765433        -138.454         -54.8131          3.4383         -54.8133         3.43723       -0.0108899         148.687
0.538                   -0.76562        -138.784         -54.8053      -0.0460313         -54.8055      -0.0471699       -0.0109887         148.619
0.539                  -0.763051        -139.131         -54.8114        -3.44393         -54.8116        -3.44512       -0.0110868         148.551
0.54                   -0.758242        -139.496         -54.8295        -6.74907         -54.8296        -6.75031       -0.0111843         148.482
0.541                  -0.751702        -139.882         -54.8578        -9.95704         -54.8579        -9.95832       -0.0112815         148.414
0.542                  -0.743916        -140.289         -54.8945        -13.0652         -54.8947        -13.0665       -0.0113783         148.345
0.543                   -0.73532        -140.716          -54.938        -16.0723         -54.9381        -16.0737        -0.011475         148.276
0.544                  -0.726295        -141.163         -54.9866        -18.9788         -54.9867        -18.9801       -0.0115717         148.207
0.545                  -0.717164        -141.629         -55.0388        -21.7858         -55.0389        -21.7871       -0.0116685         148.138
0.546                  -0.708191        -142.113         -55.0933        -24.4958         -55.0933         -24.497       -0.0117657         148.069
0.547                   -0.69959        -142.615         -55.1487        -27.1115         -55.1488        -27.1127       -0.0118633             148
0.548                  -0.691529        -143.132         -55.2041        -29.6366         -55.2041        -29.6377       -0.0119614          147.93
0.549                  -0.684136        -143.665         -55.2583        -32.0748         -55.2584        -32.0758       -0.0120603         147.861
0.55                   -0.677509        -144.212         -55.3106        -34.4303         -55.3107        -34.4312       -0.0121599         147.791
0.551                   -0.67172        -144.773         -55.3602        -36.7073         -55.3603        -36.7082       -0.0122603         147.722
0.552                  -0.666821        -145.345         -55.4065        -38.9102         -55.4065        -38.9109       -0.0123618         147.652
0.553                   -0.66285         -145.93         -55.4489        -41.0432         -55.4489        -41.0438       -0.0124642         147.582
0.554                  -0.659832        -146.526         -55.4868        -43.1106         -55.4868        -43.1111       -0.0125678         147.512
0.555                  -0.657785        -147.132           -55.52        -45.1165           -55.52        -45.1169       -0.0126725         147.441
0.556                  -0.656723        -147.749         -55.5479         -47.065         -55.5479        -47.0653       -0.0127785         147.371
0.557                  -0.656656        -148.377         -55.5705          -48.96         -55.5705        -48.9602       -0.0128857         147.301
0.558                  -0.657593        -149.013         -55.5873        -50.8053         -55.5873        -50.8052       -0.0129943          147.23
0.559                  -0.659544         -149.66         -55.5982        -52.6043         -55.5982        -52.6042       -0.0131042         147.159
0.56                    -0.66252        -150.315         -55.6031        -54.3607         -55.6031        -54.3604       -0.0132156         147.088
0.561                  -0.666532         -150.98         -55.6017        -56.0777         -55.6017        -56.0773       -0.0133284         147.017
0.562                  -0.671597        -151.654          -55.594        -57.7585         -55.5939        -57.7579       -0.0134426         146.946
0.563                  -0.677734        -152.338         -55.5798        -59.4061         -55.5797        -59.4054       -0.0135584         146.875
0.564                  -0.684966         -153.03         -55.5591        -61.0235         -55.5591        -61.0227       -0.0136757         146.804
0.565                   -0.69332        -153.732         -55.5318        -62.6136         -55.5318        -62.6126       -0.0137946         146.732
0.566                  -0.702829        -154.443         -55.4979        -64.1789         -55.4979        -64.1779       -0.0139152         146.661
0.567                  -0.713531        -155.164         -55.4573        -65.7222         -55.4573         -65.721       -0.0140373         146.589
0.568                  -0.725467        -155.894         -55.4101        -67.2459           -55.41        -67.2447       -0.0141611         146.517
0.569                  -0.738689        -156.633         -55.3561        -68.7527          -55.356        -68.7514       -0.0142866         146.445
0.57                   -0.753249        -157.382         -55.2953        -70.2448         -55.2952        -70.2435       -0.0144138         146.373
0.571                  -0.769211        -158.142         -55.2278        -71.7247         -55.2277        -71.7233       -0.0145427           146.3
0.572                  -0.786644        -158.911         -55.1536        -73.1947         -55.1535        -73.1932       -0.0146734         146.228
0.573                  -0.805623         -159.69         -55.0726         -74.657         -55.0725        -74.6555        -0.014806         146.155
0.574                  -0.826234        -160.479         -54.9849         -76.114         -54.9848        -76.1125       -0.0149403         146.082
0.575                   -0.84857        -161.279         -54.8905        -77.5679         -54.8904        -77.5664       -0.0150766         146.009
0.576                  -0.872733        -162.089         -54.7894        -79.0209         -54.7892        -79.0194       -0.0152147         145.936
0.577                  -0.898835        -162.909         -54.6816        -80.4754         -54.6815        -80.4738       -0.0153549         145.863
0.578                  -0.926998        -163.741         -54.5672        -81.9334          -54.567        -81.9319        -0.015497          145.79
0.579                  -0.957357        -164.582         -54.4461        -83.3973          -54.446        -83.3958       -0.0156411         145.716
0.58                   -0.990057        -165.435         -54.3186        -84.8695         -54.3185         -84.868       -0.0157873         145.643
0.581                   -1.02525        -166.298         -54.1845        -86.3521         -54.1844        -86.3506       -0.0159356         145.569
0.582                   -1.06312        -167.171         -54.0441        -87.8475          -54.044        -87.8461       -0.0160861         145.495
0.583                   -1.10384        -168.055         -53.8973        -89.3581         -53.8972        -89.3567       -0.0162388          145.42
0.584                   -1.14762        -168.949         -53.7442        -90.8863         -53.7441         -90.885       -0.0163938         145.346
0.585                   -1.19466        -169.853          -53.585        -92.4345         -53.5849        -92.4333       -0.0165511         145.272
0.586                   -1.24521        -170.766         -53.4198        -94.0052         -53.4197         -94.004       -0.0167108         145.197
0.587                    -1.2995        -171.687         -53.2487        -95.6009         -53.2486        -95.5998       -0.0168729         145.122
0.588                    -1.3578        -172.616         -53.0719        -97.2242         -53.0718        -97.2232       -0.0170376         145.047
0.589                   -1.42039        -173.553         -52.8895        -98.8777         -52.8895        -98.8767       -0.0172048         144.972
0.59                    -1.48756        -174.495         -52.7018        -100.564         -52.7018        -100.563       -0.0173747         144.897
0.591                   -1.55963        -175.441          -52.509        -102.286          -52.509        -102.285       -0.0175473         144.821
0.592                   -1.63691         -176.39         -52.3114        -104.045         -52.3114        -104.044       -0.0177227         144.745
0.593                   -1.71974        -177.339         -52.1092        -105.846         -52.1093        -105.845        -0.017901          144.67
0.594                   -1.80845        -178.287         -51.9029        -107.689         -51.9029        -107.689       -0.0180822         144.594
0.595                   -1.90339         -179.23         -51.6927        -109.579         -51.6927        -109.578       -0.0182665         144.517
0.596                   -2.00488         179.835         -51.4791        -111.517         -51.4791        -111.516        -0.018454         144.441
0.597                   -2.11324         178.912         -51.2625        -113.505         -51.2626        -113.505       -0.0186446         144.364
0.598                   -2.22876         178.006         -51.0435        -115.547         -51.0436        -115.547       -0.0188386         144.287
0.599                   -2.35168         177.121         -50.8225        -117.644         -50.8226        -117.644       -0.0190359          144.21
0.6                     -2.48219         176.263         -50.6003        -119.798         -50.6004        -119.798       -0.0192367         144.133
0.601                   -2.62038         175.439         -50.3774        -122.011         -50.3775         -122.01       -0.0194411         144.056
0.602                   -2.76624         174.656         -50.1544        -124.283         -50.1546        -124.283       -0.0196492         143.978
0.603                   -2.91963         173.922         -49.9323        -126.616         -49.9324        -126.616       -0.0198609         143.901
0.604                   -3.08022         173.245         -49.7116        -129.011         -49.7118         -129.01       -0.0200765         143.823
0.605                   -3.24747         172.636         -49.4933        -131.467         -49.4934        -131.466       -0.0202959         143.745
0.606                   -3.42058         172.102         -49.2781        -133.983         -49.2782        -133.983       -0.0205192         143.666
0.607                   -3.59846         171.655         -49.0669        -136.559          -49.067        -136.559       -0.0207465         143.588
0.608                   -3.77969         171.302         -48.8605        -139.193         -48.8606        -139.192       -0.0209778         143.509
0.609                   -3.96251         171.053         -48.6598        -141.881         -48.6599        -141.881       -0.0212132          143.43
0.61                    -4.14476         170.915         -48.4655        -144.622         -48.4657        -144.621       -0.0214526         143.351
0.611                   -4.32395         170.892         -48.2785         -147.41         -48.2786         -147.41        -0.021696         143.271
0.612                   -4.49727         170.987         -48.0994        -150.242         -48.0995        -150.241       -0.0219435         143.192
0.613                   -4.66167         171.198         -47.9288        -153.112         -47.9289        -153.111        -0.022195         143.112
0.614                     -4.814         171.521         -47.7673        -156.014         -47.7674        -156.014       -0.0224504         143.032
0.615                   -4.95113         171.945         -47.6152        -158.943         -47.6153        -158.943       -0.0227098         142.952
0.616                   -5.07018         172.456         -47.4729        -161.891          -47.473        -161.891        -0.022973         142.871
0.617                   -5.16868         173.035         -47.3406        -164.853         -47.3406        -164.853         -0.02324          142.79
0.618                   -5.24475         173.659         -47.2182        -167.821         -47.2182        -167.821       -0.0235107         142.709
0.619                   -5.29729         174.303         -47.1057        -170.788         -47.1057        -170.788       -0.0237851         142.628
0.62                      -5.326         174.942         -47.0028        -173.749         -47.0028        -173.749       -0.0240629         142.547
0.621                   -5.33142          175.55         -46.9092        -176.696         -46.9092        -176.696       -0.0243443         142.465
0.622                   -5.31487         176.103         -46.8245        -179.625         -46.8245        -179.625       -0.0246291         142.383
0.623                   -5.27832          176.58         -46.7481          177.47         -46.7481          177.47       -0.0249171         142.301
0.624                   -5.22418         176.965         -46.6793         174.594         -46.6793         174.593       -0.0252085         142.219
0.625                   -5.15518         177.245         -46.6176          171.75         -46.6176         171.749        -0.025503         142.136
0.626                   -5.07416         177.411         -46.5622         168.941         -46.5622         168.941       -0.0258008         142.054
0.627                    -4.9839         177.459         -46.5123         166.171         -46.5123          166.17       -0.0261017          141.97
0.628                   -4.88707         177.387         -46.4673         163.441         -46.4673          163.44       -0.0264058         141.887
0.629                   -4.78606         177.197         -46.4263         160.751         -46.4263         160.751       -0.0267131         141.803
0.63                    -4.68303         176.892         -46.3886         158.104         -46.3886         158.103       -0.0270237          141.72
0.631                   -4.57981         176.478         -46.3536         155.499         -46.3536         155.498       -0.0273375         141.635
0.632                   -4.47795         175.959         -46.3205         152.936         -46.3205         152.935       -0.0276547         141.551
0.633                   -4.37874         175.343         -46.2888         150.413         -46.2888         150.413       -0.0279753         141.466
0.634                   -4.28321         174.636         -46.2577         147.931         -46.2577          147.93       -0.0282995         141.381
0.635                   -4.19218         173.844         -46.2269         145.487         -46.2269         145.486       -0.0286273         141.296
0.636                   -4.10627         172.974         -46.1958          143.08         -46.1958         143.079        -0.028959          141.21
0.637                   -4.02597         172.032         -46.1639         140.708         -46.1639         140.707       -0.0292946         141.124
0.638                   -3.95163         171.022         -46.1309         138.369         -46.1309         138.368       -0.0296343         141.038
0.639                   -3.88351          169.95         -46.0964         136.061         -46.0964          136.06       -0.0299782         140.952
0.64                    -3.82179          168.82         -46.0601         133.781         -46.0601         133.781       -0.0303266         140.865
0.641                   -3.76657         167.636         -46.0217         131.528         -46.0217         131.528       -0.0306795         140.778
0.642                   -3.71795         166.402         -45.9811         129.299         -45.9811         129.299       -0.0310373          140.69
0.643                   -3.67596         165.119         -45.9379         127.092         -45.9379         127.092       -0.0313999         140.602
0.644                   -3.64063         163.791         -45.8922         124.904         -45.8922         124.904       -0.0317678         140.514
0.645                   -3.61199         162.419         -45.8437         122.734         -45.8437         122.734       -0.0321409         140.426
0.646                   -3.59004         161.006         -45.7924         120.578         -45.7924         120.579       -0.0325196         140.337
0.647                   -3.57482         159.552         -45.7382         118.436         -45.7381         118.437        -0.032904         140.248
0.648                   -3.56636          158.06         -45.6811         116.304          -45.681         116.305       -0.0332943         140.158
0.649                    -3.5647         156.529          -45.621         114.181         -45.6209         114.182       -0.0336907         140.068
0.65                    -3.56991          154.96          -45.558         112.065         -45.5579         112.066       -0.0340935         139.978
0.651                   -3.58208         153.353         -45.4921         109.953         -45.4919         109.955       -0.0345028         139.888
0.652                   -3.60132          151.71         -45.4233         107.845         -45.4232         107.846       -0.0349187         139.797
0.653                   -3.62777         150.028         -45.3518         105.737         -45.3516         105.739       -0.0353416         139.705
0.654                   -3.66159          148.31         -45.2776          103.63         -45.2774         103.631       -0.0357717         139.613
0.655                   -3.70299         146.553         -45.2008         101.519         -45.2006         101.521        -0.036209         139.521
0.656                    -3.7522         144.759         -45.1216         99.4056         -45.1213         99.4073        -0.036654         139.429
0.657                   -3.80949         142.925           -45.04         97.2866         -45.0397         97.2884       -0.0371067         139.336
0.658                   -3.87517         141.052         -44.9562          95.161         -44.9559         95.1628       -0.0375673         139.243
0.659                   -3.94958         139.138         -44.8704         93.0276         -44.8701         93.0294       -0.0380362         139.149
0.66                    -4.03313         137.184         -44.7827         90.8851         -44.7824         90.8869       -0.0385134         139.055
0.661                   -4.12625         135.187         -44.6934         88.7324          -44.693         88.7342       -0.0389993          138.96
0.662                   -4.22944         133.148         -44.6026         86.5684         -44.6021         86.5702        -0.039494         138.865
0.663                   -4.34325         131.065         -44.5104         84.3924           -44.51         84.3941       -0.0399979          138.77
0.664                   -4.46828         128.936         -44.4173         82.2034         -44.4168         82.2051        -0.040511         138.674
0.665                   -4.60519         126.762         -44.3232         80.0007         -44.3228         80.0023       -0.0410337         138.577
0.666                   -4.75473          124.54         -44.2286         77.7837         -44.2282         77.7852       -0.0415661         138.481
0.667                   -4.91771          122.27         -44.1336         75.5519         -44.1331         75.5534       -0.0421086         138.383
0.668                   -5.09501         119.951         -44.0385          73.305          -44.038         73.3064       -0.0426613         138.286
0.669                   -5.28762         117.581         -43.9434         71.0427          -43.943         71.0439       -0.0432245         138.187
0.67                    -5.49661         115.159         -43.8488         68.7649         -43.8483          68.766       -0.0437985         138.089
0.671                   -5.72316         112.684         -43.7548         66.4715         -43.7543         66.4725       -0.0443834          137.99
0.672                   -5.96858         110.155         -43.6617         64.1628         -43.6612         64.1637       -0.0449797          137.89
0.673                   -6.23431         107.569         -43.5697          61.839         -43.5692         61.8398       -0.0455874          137.79
0.674                   -6.52194         104.927         -43.4791         59.5006         -43.4787         59.5012       -0.0462069         137.689
0.675                   -6.83322         102.225         -43.3902         57.1481         -43.3898         57.1486       -0.0468385         137.588
0.676                   -7.17013         99.4615         -43.3032         54.7823         -43.3028         54.7827       -0.0474824         137.486
0.677                   -7.53488         96.6346         -43.2183          52.404         -43.2179         52.4042       -0.0481389         137.384
0.678                   -7.92994          93.741         -43.1358         50.0142         -43.1354         50.0144       -0.0488082         137.281
0.679                   -8.35813         90.7768         -43.0559         47.6141         -43.0556         47.6142       -0.0494908         137.178
0.68                    -8.82269          87.737         -42.9788         45.2049         -42.9785          45.205       -0.0501868         137.074
0.681                   -9.32736         84.6152         -42.9047         42.7882         -42.9045         42.7882       -0.0508965         136.969
0.682                    -9.8765         81.4027         -42.8337         40.3653         -42.8336         40.3653       -0.0516203         136.864
0.683                   -10.4753         78.0878         -42.7661          37.938          -42.766          37.938       -0.0523585         136.759
0.684                   -11.1299         74.6545          -42.702          35.508         -42.7019          35.508       -0.0531114         136.652
0.685                   -11.8478         71.0804         -42.6414          33.077         -42.6413         33.0772       -0.0538793         136.545
0.686                   -12.6384         67.3339         -42.5845         30.6472         -42.5845         30.6474       -0.0546626         136.438
0.687                   -13.5132         63.3696         -42.5312         28.2203         -42.5313         28.2206       -0.0554616          136.33
0.688                   -14.4871         59.1199         -42.4818         25.7984         -42.4819         25.7988       -0.0562766         136.221
0.689                   -15.5791          54.482         -42.4361         23.3835         -42.4362         23.3841        -0.057108         136.112
0.69                    -16.8143         49.2933         -42.3942         20.9777         -42.3943         20.9785       -0.0579562         136.002
0.691                   -18.2249         43.2848         -42.3559          18.583         -42.3561          18.584       -0.0588215         135.891
0.692                   -19.8509         35.9887         -42.3213         16.2014         -42.3216         16.2026       -0.0597044         135.779
0.693                   -21.7318         26.5481         -42.2903          13.835         -42.2905         13.8364       -0.0606053         135.667
0.694                   -23.8625         13.3518         -42.2627         11.4855          -42.263         11.4872       -0.0615246         135.554
0.695                   -26.0129         -6.3005         -42.2383         9.15504         -42.2386         9.15692       -0.0624627         135.441
0.696                   -27.3305        -34.1373         -42.2171         6.84522         -42.2174         6.84735       -0.0634201         135.327