! TOUCHSTONE file generated by CST MICROWAVE STUDIO
! Date and time: Thu Feb 11 19:33:08 2021
! Project name: Scenario_1_Planar_Body_Tissue_Out_of_Line.cst
! Parameters = {L_HA=400; Ltissue=1000; MT=2.54; Rad_Dielectric=30; Rad_Lower=7.3; Rad_Upper=30; Wtissue=1000; a_HA=580; a_WG=246; b_HA=500; b_WG=121; c_HA=0; c_WG=187; d_feed=85; dx1=346; dy1=-51.9; h_feed=15; h_lower=18; h_upper=40; hfat=3; hgap=25; hmuscle=50; hskin=1.5}
! Header version: 2018
! Port assignment regex: !\s*Touchstone port\s*([0-9]+)\s*=\s*(CST MWS port|CST DS port)\s*([0-9]+|Zmin|Zmax)\s*\(\"(.*)\"\)(\s*mode\s*([0-9]+))?.*
! Touchstone port assignment:
! Touchstone port 1 = CST MWS port 1 ("")
! Touchstone port 2 = CST MWS port 2 ("")
# GHz S DB R 50
0.5                    -0.270257        -121.506         -55.5204         34.3074         -55.5202         34.3072      -0.00798468         151.157
0.501                  -0.271101        -121.914         -55.5599         32.9159         -55.5598         32.9157      -0.00805328         151.092
0.502                  -0.271987        -122.324         -55.5957         31.5106         -55.5956         31.5104      -0.00812194         151.026
0.503                  -0.272917        -122.736         -55.6278         30.0921         -55.6277         30.0918      -0.00819069         150.961
0.504                  -0.273891        -123.151         -55.6561         28.6609         -55.6559         28.6606      -0.00825952         150.896
0.505                  -0.274911        -123.568         -55.6804         27.2176         -55.6802         27.2173      -0.00832847         150.831
0.506                  -0.275978        -123.987         -55.7007         25.7629         -55.7005         25.7626      -0.00839753         150.765
0.507                  -0.277093        -124.409         -55.7169         24.2976         -55.7167         24.2972      -0.00846674           150.7
0.508                  -0.278259        -124.834          -55.729         22.8222         -55.7287         22.8218      -0.00853609         150.634
0.509                  -0.279476        -125.261         -55.7368         21.3375         -55.7366         21.3372      -0.00860561         150.569
0.51                   -0.280747         -125.69         -55.7404         19.8444         -55.7401          19.844      -0.00867532         150.503
0.511                  -0.282072        -126.123         -55.7396         18.3435         -55.7393         18.3432      -0.00874522         150.437
0.512                  -0.283455        -126.558         -55.7345         16.8358         -55.7342         16.8355      -0.00881533         150.371
0.513                  -0.284897        -126.996         -55.7249          15.322         -55.7247         15.3217      -0.00888567         150.305
0.514                  -0.286399        -127.436          -55.711          13.803         -55.7107         13.8027      -0.00895626         150.239
0.515                  -0.287965         -127.88         -55.6925         12.2795         -55.6923         12.2793       -0.0090271         150.173
0.516                  -0.289596        -128.326         -55.6697         10.7526         -55.6694         10.7523      -0.00909822         150.107
0.517                  -0.291294        -128.776         -55.6423         9.22291          -55.642         9.22271      -0.00916963         150.041
0.518                  -0.293063        -129.228         -55.6105         7.69138         -55.6102          7.6912      -0.00924135         149.974
0.519                  -0.294905        -129.683         -55.5742          6.1588         -55.5739         6.15866      -0.00931339         149.908
0.52                   -0.296823        -130.142         -55.5335           4.626         -55.5332         4.62589      -0.00938577         149.841
0.521                  -0.298819        -130.604         -55.4884         3.09376         -55.4881         3.09368      -0.00945851         149.775
0.522                  -0.300896        -131.069         -55.4388         1.56285         -55.4385         1.56281      -0.00953162         149.708
0.523                  -0.303059        -131.537          -55.385       0.0340214         -55.3847       0.0340078      -0.00960512         149.641
0.524                  -0.305309        -132.009         -55.3268        -1.49202         -55.3265          -1.492      -0.00967903         149.574
0.525                  -0.307652        -132.484         -55.2644        -3.01458         -55.2641        -3.01453      -0.00975337         149.507
0.526                   -0.31009        -132.962         -55.1978        -4.53302         -55.1975        -4.53294      -0.00982815          149.44
0.527                  -0.312628        -133.445         -55.1271        -6.04673         -55.1268        -6.04662      -0.00990339         149.373
0.528                   -0.31527        -133.931         -55.0522        -7.55514          -55.052        -7.55499      -0.00997911         149.305
0.529                   -0.31802         -134.42         -54.9734        -9.05771         -54.9732        -9.05753       -0.0100553         149.238
0.53                   -0.320883        -134.913         -54.8907         -10.554         -54.8904        -10.5538        -0.010132          149.17
0.531                  -0.323865        -135.411         -54.8041        -12.0434         -54.8039        -12.0432       -0.0102093         149.103
0.532                  -0.326969        -135.912         -54.7138        -13.5257         -54.7135        -13.5255       -0.0102871         149.035
0.533                  -0.330203        -136.417         -54.6197        -15.0005         -54.6194        -15.0003       -0.0103655         148.967
0.534                  -0.333571        -136.927          -54.522        -16.4675         -54.5218        -16.4672       -0.0104445         148.899
0.535                   -0.33708         -137.44         -54.4208        -17.9263         -54.4206         -17.926       -0.0105241         148.831
0.536                  -0.340737        -137.958         -54.3162        -19.3769         -54.3159        -19.3766       -0.0106043         148.763
0.537                  -0.344548         -138.48         -54.2081        -20.8189         -54.2079        -20.8186       -0.0106851         148.695
0.538                  -0.348521        -139.007         -54.0968        -22.2523         -54.0966         -22.252       -0.0107667         148.627
0.539                  -0.352664        -139.539         -53.9823         -23.677         -53.9821        -23.6766       -0.0108489         148.558
0.54                   -0.356984        -140.075         -53.8646        -25.0929         -53.8644        -25.0925       -0.0109318          148.49
0.541                  -0.361492        -140.616         -53.7439        -26.4999         -53.7437        -26.4996       -0.0110154         148.421
0.542                  -0.366196        -141.162         -53.6202        -27.8983         -53.6201        -27.8979       -0.0110998         148.352
0.543                  -0.371105        -141.713         -53.4937        -29.2878         -53.4935        -29.2875        -0.011185         148.284
0.544                  -0.376232        -142.269         -53.3642        -30.6688         -53.3641        -30.6684        -0.011271         148.215
0.545                  -0.381586         -142.83         -53.2321        -32.0413         -53.2319        -32.0409       -0.0113577         148.146
0.546                  -0.387179        -143.397         -53.0972        -33.4055          -53.097        -33.4051       -0.0114454         148.076
0.547                  -0.393026         -143.97         -52.9597        -34.7615         -52.9595        -34.7611       -0.0115338         148.007
0.548                  -0.399137        -144.548         -52.8196        -36.1096         -52.8195        -36.1092       -0.0116232         147.938
0.549                  -0.405529        -145.132          -52.677          -37.45         -52.6769        -37.4497       -0.0117135         147.868
0.55                   -0.412217        -145.722         -52.5319        -38.7831         -52.5318        -38.7827       -0.0118046         147.798
0.551                  -0.419216        -146.318         -52.3845         -40.109         -52.3844        -40.1087       -0.0118968         147.729
0.552                  -0.426544         -146.92         -52.2346        -41.4282         -52.2345        -41.4279       -0.0119899         147.659
0.553                  -0.434221        -147.529         -52.0825         -42.741         -52.0824        -42.7407        -0.012084         147.589
0.554                  -0.442264        -148.145         -51.9281        -44.0477          -51.928        -44.0474       -0.0121792         147.519
0.555                  -0.450697        -148.767         -51.7714        -45.3488         -51.7713        -45.3485       -0.0122754         147.448
0.556                   -0.45954        -149.397         -51.6125        -46.6446         -51.6125        -46.6444       -0.0123726         147.378
0.557                   -0.46882        -150.033         -51.4515        -47.9357         -51.4514        -47.9354        -0.012471         147.308
0.558                  -0.478561        -150.677         -51.2883        -49.2223         -51.2883        -49.2221       -0.0125705         147.237
0.559                  -0.488791        -151.329          -51.123        -50.5051          -51.123        -50.5048       -0.0126712         147.166
0.56                   -0.499541        -151.988         -50.9556        -51.7844         -50.9556        -51.7842        -0.012773         147.095
0.561                  -0.510842        -152.655         -50.7862        -53.0609         -50.7861        -53.0607       -0.0128761         147.024
0.562                  -0.522728        -153.331         -50.6147        -54.3349         -50.6146        -54.3347       -0.0129804         146.953
0.563                  -0.535237        -154.015         -50.4411        -55.6071         -50.4411         -55.607       -0.0130859         146.882
0.564                  -0.548408        -154.707         -50.2655        -56.8781         -50.2655        -56.8779       -0.0131928          146.81
0.565                  -0.562284        -155.409         -50.0879        -58.1483         -50.0879        -58.1482        -0.013301         146.739
0.566                   -0.57691         -156.12         -49.9084        -59.4185         -49.9084        -59.4183       -0.0134106         146.667
0.567                  -0.592336        -156.841         -49.7268        -60.6891         -49.7268         -60.689       -0.0135216         146.595
0.568                  -0.608616        -157.571         -49.5432        -61.9608         -49.5432        -61.9608        -0.013634         146.523
0.569                  -0.625806        -158.311         -49.3576        -63.2344         -49.3576        -63.2343       -0.0137478         146.451
0.57                   -0.643968        -159.062         -49.1701        -64.5104         -49.1701        -64.5103       -0.0138632         146.379
0.571                   -0.66317        -159.823         -48.9805        -65.7895         -48.9806        -65.7895       -0.0139801         146.307
0.572                  -0.683483        -160.595          -48.789        -67.0725          -48.789        -67.0725       -0.0140986         146.234
0.573                  -0.704986        -161.378         -48.5955        -68.3602         -48.5956        -68.3601       -0.0142187         146.161
0.574                  -0.727763        -162.173            -48.4        -69.6531         -48.4001        -69.6531       -0.0143404         146.089
0.575                  -0.751906         -162.98         -48.2026        -70.9522         -48.2026        -70.9523       -0.0144639         146.016
0.576                  -0.777514        -163.799         -48.0031        -72.2583         -48.0032        -72.2583       -0.0145891         145.943
0.577                  -0.804694        -164.631         -47.8017        -73.5722         -47.8018        -73.5722        -0.014716         145.869
0.578                  -0.833563        -165.475         -47.5983        -74.8947         -47.5983        -74.8948       -0.0148448         145.796
0.579                  -0.864246        -166.333         -47.3929        -76.2268          -47.393        -76.2269       -0.0149755         145.722
0.58                   -0.896881        -167.204         -47.1856        -77.5694         -47.1856        -77.5695       -0.0151081         145.648
0.581                  -0.931618        -168.089         -46.9763        -78.9235         -46.9763        -78.9235       -0.0152427         145.574
0.582                  -0.968616        -168.989          -46.765        -80.2899          -46.765          -80.29       -0.0153794           145.5
0.583                   -1.00805        -169.902         -46.5518        -81.6699         -46.5518          -81.67       -0.0155181         145.426
0.584                   -1.05012        -170.831         -46.3366        -83.0644         -46.3367        -83.0645        -0.015659         145.352
0.585                   -1.09502        -171.774         -46.1196        -84.4746         -46.1197        -84.4746       -0.0158021         145.277
0.586                   -1.14299        -172.733         -45.9007        -85.9015         -45.9007        -85.9016       -0.0159475         145.202
0.587                   -1.19426        -173.707         -45.6799        -87.3464           -45.68        -87.3465       -0.0160953         145.127
0.588                   -1.24911        -174.696         -45.4574        -88.8105         -45.4575        -88.8106       -0.0162455         145.052
0.589                   -1.30782          -175.7         -45.2331        -90.2951         -45.2332        -90.2952       -0.0163982         144.977
0.59                    -1.37071         -176.72         -45.0071        -91.8014         -45.0072        -91.8015       -0.0165536         144.902
0.591                   -1.43812        -177.755         -44.7795        -93.3308         -44.7796        -93.3309       -0.0167116         144.826
0.592                   -1.51042        -178.805         -44.5504        -94.8847         -44.5504        -94.8848       -0.0168725          144.75
0.593                   -1.58801         -179.87         -44.3198        -96.4645         -44.3198        -96.4645       -0.0170363         144.674
0.594                   -1.67133         179.053         -44.0878        -98.0716         -44.0879        -98.0716        -0.017203         144.598
0.595                   -1.76084         177.962         -43.8547        -99.7075         -43.8547        -99.7075        -0.017373         144.522
0.596                   -1.85704          176.86         -43.6205        -101.374         -43.6205        -101.374       -0.0175462         144.445
0.597                   -1.96048         175.748         -43.3853        -103.072         -43.3854        -103.072       -0.0177229         144.368
0.598                   -2.07174         174.627         -43.1494        -104.803         -43.1495        -104.803       -0.0179031         144.291
0.599                   -2.19143         173.501          -42.913        -106.569         -42.9131        -106.569       -0.0180871         144.214
0.6                      -2.3202         172.372         -42.6763        -108.372         -42.6763        -108.372       -0.0182749         144.137
0.601                   -2.45875         171.244         -42.4395        -110.212         -42.4395        -110.213        -0.018467         144.059
0.602                   -2.60777          170.12         -42.2029        -112.092          -42.203        -112.092       -0.0186633         143.981
0.603                   -2.76802         169.007         -41.9669        -114.013         -41.9669        -114.013       -0.0188642         143.903
0.604                   -2.94025         167.909         -41.7318        -115.975         -41.7318        -115.975       -0.0190698         143.825
0.605                    -3.1252         166.835         -41.4978        -117.981         -41.4978        -117.981       -0.0192806         143.747
0.606                   -3.32359         165.792         -41.2655        -120.031         -41.2656        -120.031       -0.0194966         143.668
0.607                   -3.53612         164.791         -41.0353        -122.126         -41.0353        -122.126       -0.0197183         143.589
0.608                   -3.76338         163.843         -40.8076        -124.267         -40.8076        -124.267        -0.019946          143.51
0.609                   -4.00585         162.961          -40.583        -126.454          -40.583        -126.454       -0.0201799         143.431
0.61                    -4.26381         162.161         -40.3619        -128.688         -40.3619        -128.687       -0.0204204         143.351
0.611                    -4.5373          161.46         -40.1449        -130.967         -40.1449        -130.967        -0.020668         143.272
0.612                     -4.826         160.878         -39.9325        -133.293         -39.9325        -133.293       -0.0209229         143.192
0.613                   -5.12916         160.435         -39.7254        -135.663         -39.7254        -135.663       -0.0211856         143.112
0.614                   -5.44541         160.156         -39.5241        -138.078         -39.5241        -138.078       -0.0214564         143.031
0.615                   -5.77267         160.064         -39.3292        -140.534         -39.3292        -140.534       -0.0217356          142.95
0.616                   -6.10793         160.186         -39.1413         -143.03         -39.1413         -143.03       -0.0220237          142.87
0.617                   -6.44713         160.546          -38.961        -145.563          -38.961        -145.563       -0.0223209         142.789
0.618                   -6.78501         161.167         -38.7888         -148.13         -38.7887         -148.13       -0.0226274         142.707
0.619                   -7.11503         162.064         -38.6252        -150.727         -38.6251        -150.727       -0.0229435         142.626
0.62                    -7.42943         163.247         -38.4706        -153.351         -38.4705        -153.351       -0.0232691         142.544
0.621                   -7.71948         164.712         -38.3254        -155.996         -38.3254        -155.997       -0.0236042         142.462
0.622                   -7.97596         166.443           -38.19        -158.659           -38.19        -158.659       -0.0239486          142.38
0.623                    -8.1899         168.404         -38.0646        -161.334         -38.0645        -161.334       -0.0243019         142.297
0.624                   -8.35349         170.543         -37.9493        -164.016         -37.9492        -164.016       -0.0246637         142.215
0.625                    -8.4611         172.794         -37.8442        -166.698         -37.8441        -166.699       -0.0250332         142.132
0.626                   -8.50999         175.079         -37.7492        -169.377         -37.7492        -169.378       -0.0254096         142.049
0.627                   -8.50074         177.321         -37.6643        -172.047         -37.6642        -172.047       -0.0257918         141.966
0.628                   -8.43702         179.447         -37.5892        -174.702         -37.5892        -174.702       -0.0261787         141.883
0.629                   -8.32509        -178.603         -37.5237        -177.336         -37.5236        -177.337       -0.0265691         141.799
0.63                    -8.17277        -176.873         -37.4672        -179.947         -37.4671        -179.947       -0.0269616         141.715
0.631                    -7.9886        -175.391         -37.4195         177.472         -37.4194         177.471        -0.027355         141.631
0.632                   -7.78097         -174.17         -37.3799         174.923         -37.3798         174.923       -0.0277482         141.547
0.633                   -7.55754        -173.209         -37.3479         172.411         -37.3478          172.41         -0.02814         141.462
0.634                   -7.32496        -172.499         -37.3229         169.938         -37.3228         169.938       -0.0285296         141.378
0.635                   -7.08868        -172.024         -37.3043         167.507         -37.3043         167.507       -0.0289163         141.293
0.636                   -6.85306        -171.766         -37.2915         165.121         -37.2914          165.12       -0.0292998         141.207
0.637                    -6.6214        -171.703         -37.2837          162.78         -37.2837         162.779       -0.0296797         141.122
0.638                   -6.39615        -171.815         -37.2804         160.486         -37.2803         160.485       -0.0300561         141.036
0.639                   -6.17902        -172.084         -37.2809         158.239         -37.2808         158.239       -0.0304293          140.95
0.64                    -5.97116         -172.49         -37.2845         156.041         -37.2844          156.04       -0.0307996         140.863
0.641                   -5.77328        -173.017         -37.2907          153.89         -37.2906          153.89       -0.0311678         140.777
0.642                   -5.58574        -173.651         -37.2989         151.788         -37.2988         151.787       -0.0315343          140.69
0.643                   -5.40864        -174.378         -37.3085         149.732         -37.3084         149.731          -0.0319         140.602
0.644                    -5.2419        -175.187          -37.319         147.722          -37.319         147.721       -0.0322658         140.514
0.645                   -5.08533        -176.069           -37.33         145.757         -37.3299         145.756       -0.0326323         140.426
0.646                   -4.93863        -177.014         -37.3409         143.836         -37.3408         143.835       -0.0330005         140.338
0.647                   -4.80145        -178.015         -37.3514         141.957         -37.3513         141.957       -0.0333711         140.249
0.648                   -4.67339        -179.066          -37.361         140.119          -37.361         140.119       -0.0337449         140.159
0.649                   -4.55406         179.838         -37.3695         138.321         -37.3695          138.32       -0.0341225          140.07
0.65                    -4.44305         178.702         -37.3764         136.559         -37.3764         136.559       -0.0345047          139.98
0.651                   -4.33995          177.53         -37.3816         134.834         -37.3815         134.833       -0.0348921         139.889
0.652                   -4.24437         176.324         -37.3846         133.142         -37.3846         133.142       -0.0352852         139.799
0.653                   -4.15595         175.089         -37.3854         131.483         -37.3854         131.483       -0.0356845         139.707
0.654                   -4.07432         173.825         -37.3836         129.854         -37.3836         129.854       -0.0360906         139.616
0.655                   -3.99914         172.535         -37.3791         128.253          -37.379         128.253       -0.0365038         139.524
0.656                   -3.93012          171.22         -37.3716          126.68         -37.3716         126.679       -0.0369246         139.431
0.657                   -3.86694         169.882         -37.3611         125.131         -37.3611          125.13       -0.0373533         139.338
0.658                   -3.80935         168.521         -37.3475         123.605         -37.3474         123.604       -0.0377903         139.245
0.659                    -3.7571         167.138         -37.3305           122.1         -37.3304           122.1       -0.0382359         139.151
0.66                    -3.70996         165.733         -37.3101         120.615           -37.31         120.615       -0.0386904         139.057
0.661                   -3.66772         164.308         -37.2862         119.148         -37.2862         119.148        -0.039154         138.963
0.662                   -3.63019         162.861         -37.2587         117.697         -37.2587         117.697       -0.0396271         138.868
0.663                   -3.59721         161.394         -37.2276          116.26         -37.2276          116.26       -0.0401098         138.772
0.664                   -3.56863         159.905         -37.1929         114.837         -37.1928         114.837       -0.0406025         138.676
0.665                   -3.54431         158.396         -37.1544         113.424         -37.1544         113.424       -0.0411054          138.58
0.666                   -3.52413         156.864         -37.1122         112.022         -37.1122         112.021       -0.0416187         138.483
0.667                   -3.50799         155.311         -37.0662         110.627         -37.0662         110.627       -0.0421426         138.386
0.668                   -3.49581         153.735         -37.0165         109.239         -37.0165         109.239       -0.0426775         138.288
0.669                   -3.48751         152.136         -36.9631         107.856          -36.963         107.856       -0.0432234          138.19
0.67                    -3.48302         150.513         -36.9059         106.477         -36.9058         106.477       -0.0437807         138.091
0.671                   -3.48231         148.866          -36.845           105.1          -36.845           105.1       -0.0443497         137.992
0.672                   -3.48533         147.194         -36.7804         103.724         -36.7804         103.724       -0.0449304         137.892
0.673                   -3.49207         145.495         -36.7122         102.347         -36.7122         102.347       -0.0455233         137.792
0.674                   -3.50252          143.77         -36.6404         100.969         -36.6404         100.969       -0.0461286         137.691
0.675                   -3.51666         142.017          -36.565         99.5868          -36.565         99.5868       -0.0467464          137.59
0.676                   -3.53453         140.234         -36.4862         98.2002         -36.4862         98.2003       -0.0473771         137.488
0.677                   -3.55613         138.422          -36.404         96.8077          -36.404         96.8078        -0.048021         137.386
0.678                    -3.5815         136.578         -36.3185          95.408         -36.3185         95.4081       -0.0486784         137.283
0.679                   -3.61068         134.702         -36.2298         93.9999         -36.2297              94       -0.0493494         137.179
0.68                    -3.64372         132.792         -36.1379         92.5822         -36.1378         92.5823       -0.0500346         137.075
0.681                   -3.68068         130.847          -36.043         91.1536         -36.0429         91.1537        -0.050734         136.971
0.682                   -3.72165         128.866         -35.9452         89.7129         -35.9451          89.713       -0.0514481         136.865
0.683                   -3.76668         126.846         -35.8446         88.2592         -35.8446         88.2593       -0.0521772          136.76
0.684                   -3.81588         124.787         -35.7414         86.7912         -35.7413         86.7913       -0.0529217         136.653
0.685                   -3.86934         122.687         -35.6357         85.3079         -35.6356         85.3079       -0.0536818         136.546
0.686                   -3.92717         120.544         -35.5276         83.8082         -35.5275         83.8083        -0.054458         136.439
0.687                   -3.98947         118.357         -35.4173         82.2913         -35.4173         82.2914       -0.0552507          136.33
0.688                   -4.05636         116.123          -35.305         80.7561          -35.305         80.7562       -0.0560601         136.221
0.689                   -4.12797          113.84         -35.1909         79.2018         -35.1909         79.2019       -0.0568868         136.112
0.69                    -4.20443         111.508         -35.0752         77.6276         -35.0752         77.6277       -0.0577311         136.002
0.691                   -4.28586         109.122          -34.958         76.0327          -34.958         76.0328       -0.0585935         135.891
0.692                   -4.37241         106.682         -34.8396         74.4165         -34.8396         74.4166       -0.0594744         135.779
0.693                   -4.46421         104.184         -34.7202         72.7783         -34.7201         72.7784       -0.0603742         135.667
0.694                   -4.56139         101.627            -34.6         71.1176         -34.5999         71.1177       -0.0612935         135.554
0.695                   -4.66408         99.0075         -34.4792          69.434         -34.4792          69.434       -0.0622328          135.44
0.696                   -4.77241         96.3232         -34.3582         67.7271         -34.3581         67.7271       -0.0631924         135.325