! TOUCHSTONE file generated by CST MICROWAVE STUDIO
! Date and time: Sat Nov 14 20:37:09 2020
! Project name: Scenario_1_Planar_Body_Tissue_Out_of_Line_v2.cst
! Parameters = {dy1=34.6; L_HA=400; Ltissue=700; MT=2.54; Rad_Dielectric=30; Rad_Lower=7.3; Rad_Upper=30; Wtissue=700; a_HA=580; a_WG=246; b_HA=500; b_WG=121; c_HA=0; c_WG=187; d_feed=85; dx1=173; h_feed=15; h_lower=18; h_upper=40; hfat=3; hgap=25; hmuscle=50; hskin=1.5}
! Header version: 2018
! Port assignment regex: !\s*Touchstone port\s*([0-9]+)\s*=\s*(CST MWS port|CST DS port)\s*([0-9]+|Zmin|Zmax)\s*\(\"(.*)\"\)(\s*mode\s*([0-9]+))?.*
! Touchstone port assignment:
! Touchstone port 1 = CST MWS port 1 ("")
! Touchstone port 2 = CST MWS port 2 ("")
# GHz S DB R 50
0.5                   -0.0435058        -121.732         -57.0153         131.642         -57.0153         131.643      -0.00713078         151.162
0.501                 -0.0444588        -122.183         -56.8518         131.123         -56.8517         131.124      -0.00717405         151.097
0.502                 -0.0454826        -122.637         -56.6856         130.598         -56.6856         130.599       -0.0072184         151.031
0.503                 -0.0465804        -123.094          -56.517         130.066         -56.5169         130.067      -0.00726382         150.966
0.504                 -0.0477561        -123.555         -56.3457         129.529         -56.3456         129.529      -0.00731033           150.9
0.505                 -0.0490135        -124.019         -56.1718         128.984         -56.1717         128.985      -0.00735793         150.834
0.506                  -0.050357        -124.487         -55.9952         128.433         -55.9951         128.434      -0.00740663         150.769
0.507                 -0.0517911        -124.959         -55.8159         127.875         -55.8158         127.876      -0.00745643         150.703
0.508                 -0.0533209        -125.435         -55.6338          127.31         -55.6337         127.311      -0.00750734         150.637
0.509                 -0.0549517        -125.915         -55.4489         126.738         -55.4488         126.739      -0.00755936         150.571
0.51                  -0.0566893        -126.399         -55.2611         126.159          -55.261          126.16      -0.00761252         150.505
0.511                   -0.05854        -126.888         -55.0704         125.572         -55.0704         125.573       -0.0076668         150.439
0.512                 -0.0605106        -127.381         -54.8768         124.978         -54.8767         124.978      -0.00772223         150.372
0.513                 -0.0626085        -127.878         -54.6801         124.376         -54.6801         124.376       -0.0077788         150.306
0.514                 -0.0648417         -128.38         -54.4804         123.765         -54.4804         123.766      -0.00783654          150.24
0.515                 -0.0672189        -128.887         -54.2776         123.146         -54.2775         123.147      -0.00789545         150.173
0.516                 -0.0697496        -129.399         -54.0715         122.519         -54.0715         122.519      -0.00795553         150.107
0.517                 -0.0724441        -129.916         -53.8623         121.883         -53.8622         121.883      -0.00801682          150.04
0.518                 -0.0753136        -130.438         -53.6497         121.237         -53.6497         121.238       -0.0080793         149.973
0.519                 -0.0783706        -130.966         -53.4338         120.582         -53.4337         120.583      -0.00814301         149.906
0.52                  -0.0816282        -131.499         -53.2144         119.917         -53.2143         119.918      -0.00820795         149.839
0.521                 -0.0851014        -132.039         -52.9915         119.242         -52.9914         119.243      -0.00827414         149.772
0.522                 -0.0888062        -132.585          -52.765         118.557          -52.765         118.557       -0.0083416         149.705
0.523                 -0.0927602        -133.137         -52.5349          117.86         -52.5348          117.86      -0.00841034         149.638
0.524                 -0.0969829        -133.695          -52.301         117.152          -52.301         117.152      -0.00848039         149.571
0.525                  -0.101496        -134.261         -52.0633         116.432         -52.0633         116.432      -0.00855177         149.503
0.526                  -0.106322        -134.833         -51.8217         115.699         -51.8217         115.699       -0.0086245         149.436
0.527                  -0.111488        -135.414         -51.5761         114.953          -51.576         114.954       -0.0086986         149.368
0.528                  -0.117023        -136.001         -51.3264         114.194         -51.3263         114.194      -0.00877412         149.301
0.529                  -0.122958        -136.598         -51.0725          113.42         -51.0724          113.42      -0.00885107         149.233
0.53                   -0.129329        -137.202         -50.8142         112.631         -50.8142         112.631      -0.00892949         149.165
0.531                  -0.136175        -137.815         -50.5516         111.826         -50.5516         111.826      -0.00900943         149.097
0.532                  -0.143539        -138.438         -50.2845         111.004         -50.2845         111.005      -0.00909093         149.029
0.533                  -0.151471        -139.071         -50.0127         110.165         -50.0127         110.165      -0.00917402         148.961
0.534                  -0.160025        -139.713         -49.7362         109.307         -49.7361         109.307      -0.00925878         148.892
0.535                  -0.169263        -140.366         -49.4547         108.429         -49.4547         108.429      -0.00934525         148.824
0.536                  -0.179251        -141.031         -49.1683          107.53         -49.1683         107.531      -0.00943351         148.756
0.537                  -0.190069        -141.707         -48.8767         106.609         -48.8767         106.609      -0.00952364         148.687
0.538                  -0.201801        -142.396         -48.5798         105.664         -48.5798         105.664       -0.0096157         148.618
0.539                  -0.214547        -143.098         -48.2774         104.694         -48.2774         104.694      -0.00970981         148.549
0.54                   -0.228416        -143.814         -47.9695         103.697         -47.9695         103.697      -0.00980608          148.48
0.541                  -0.243535        -144.544         -47.6558         102.671         -47.6558         102.671      -0.00990462         148.411
0.542                  -0.260045         -145.29         -47.3362         101.614         -47.3361         101.614       -0.0100056         148.342
0.543                  -0.278111        -146.052         -47.0105         100.523         -47.0105         100.524       -0.0101091         148.273
0.544                  -0.297917        -146.831         -46.6785         99.3975         -46.6785         99.3978       -0.0102154         148.203
0.545                  -0.319676        -147.629         -46.3402         98.2332         -46.3402         98.2335       -0.0103247         148.134
0.546                  -0.343632        -148.446         -45.9953         97.0275         -45.9953         97.0278       -0.0104372         148.064
0.547                  -0.370067        -149.283         -45.6436         95.7771         -45.6436         95.7774       -0.0105532         147.994
0.548                  -0.399303        -150.142         -45.2851         94.4783         -45.2851         94.4786        -0.010673         147.924
0.549                  -0.431717        -151.024         -44.9195         93.1271         -44.9195         93.1274       -0.0107969         147.854
0.55                   -0.467743         -151.93         -44.5468         91.7189         -44.5468         91.7192       -0.0109256         147.784
0.551                  -0.507885        -152.862         -44.1669         90.2488         -44.1669         90.2491       -0.0110593         147.714
0.552                  -0.552732         -153.82         -43.7796         88.7114         -43.7796         88.7116       -0.0111987         147.643
0.553                  -0.602971        -154.806          -43.385         87.1004          -43.385         87.1007       -0.0113445         147.572
0.554                  -0.659404        -155.821          -42.983         85.4093          -42.983         85.4096       -0.0114975         147.502
0.555                  -0.722971        -156.866         -42.5738         83.6305         -42.5738         83.6308       -0.0116586         147.431
0.556                  -0.794773        -157.941         -42.1576          81.756         -42.1576         81.7563       -0.0118287         147.359
0.557                  -0.876103        -159.047         -41.7346         79.7767         -41.7346          79.777       -0.0120093         147.288
0.558                  -0.968472        -160.182         -41.3054         77.6829         -41.3054         77.6832       -0.0122016         147.217
0.559                   -1.07365        -161.345         -40.8705         75.4639         -40.8705         75.4642       -0.0124074         147.145
0.56                    -1.19369        -162.532         -40.4308         73.1083         -40.4308         73.1086       -0.0126285         147.073
0.561                   -1.33097        -163.738         -39.9875         70.6039         -39.9875         70.6042        -0.012867         147.002
0.562                   -1.48823        -164.952          -39.542          67.938          -39.542         67.9383       -0.0131254         146.929
0.563                   -1.66853        -166.163         -39.0963         65.0978         -39.0963         65.0981       -0.0134062         146.857
0.564                   -1.87527         -167.35         -38.6527         62.0704         -38.6527         62.0707       -0.0137122         146.785
0.565                   -2.11202        -168.487         -38.2141         58.8438         -38.2141         58.8441       -0.0140462         146.713
0.566                   -2.38234        -169.535         -37.7841         55.4078         -37.7841         55.4081        -0.014411          146.64
0.567                   -2.68937        -170.445         -37.3668         51.7548         -37.3668         51.7551       -0.0148089         146.568
0.568                   -3.03511        -171.149         -36.9669         47.8812         -36.9669         47.8815       -0.0152414         146.495
0.569                   -3.41935        -171.565         -36.5896         43.7892         -36.5896         43.7895       -0.0157084         146.422
0.57                    -3.83809        -171.588         -36.2406         39.4879         -36.2406         39.4882       -0.0162081          146.35
0.571                   -4.28149        -171.107         -35.9256         34.9946         -35.9256         34.9949       -0.0167356         146.278
0.572                   -4.73158        -170.009           -35.65         30.3359           -35.65         30.3361       -0.0172828         146.206
0.573                   -5.16076        -168.214         -35.4185         25.5473         -35.4185         25.5475       -0.0178382         146.134
0.574                   -5.53275        -165.709         -35.2347         20.6722         -35.2347         20.6724       -0.0183866         146.063
0.575                   -5.80799        -162.594         -35.1008         15.7596         -35.1008         15.7598       -0.0189111         145.992
0.576                   -5.95389        -159.095          -35.017          10.861          -35.017         10.8612       -0.0193944         145.921
0.577                   -5.95602        -155.525         -34.9821         6.02679         -34.9821         6.02696       -0.0198213          145.85
0.578                    -5.8233        -152.206         -34.9929         1.30298         -34.9929         1.30313        -0.020181          145.78
0.579                   -5.58363        -149.381         -35.0451        -3.27151         -35.0451        -3.27138       -0.0204682         145.709
0.58                    -5.27321        -147.172         -35.1335        -7.66646         -35.1335        -7.66635       -0.0206838         145.639
0.581                   -4.92642        -145.597         -35.2526        -11.8608         -35.2526        -11.8607       -0.0208339         145.568
0.582                   -4.57025          -144.6         -35.3966        -15.8422         -35.3966        -15.8421        -0.020928         145.496
0.583                   -4.22303        -144.094         -35.5601        -19.6059         -35.5601        -19.6058       -0.0209778         145.425
0.584                   -3.89573        -143.984         -35.7381        -23.1534         -35.7381        -23.1533       -0.0209949         145.353
0.585                   -3.59389        -144.185         -35.9262        -26.4907         -35.9262        -26.4907       -0.0209904          145.28
0.586                   -3.31947        -144.623         -36.1208        -29.6273         -36.1208        -29.6273       -0.0209736         145.207
0.587                   -3.07223        -145.239         -36.3186        -32.5746         -36.3186        -32.5746       -0.0209521         145.134
0.588                   -2.85072        -145.987          -36.517        -35.3452          -36.517        -35.3451       -0.0209316          145.06
0.589                   -2.65291        -146.831         -36.7141         -37.952         -36.7141        -37.9519       -0.0209164         144.986
0.59                    -2.47654        -147.744          -36.908        -40.4079          -36.908        -40.4079       -0.0209096         144.911
0.591                   -2.31935        -148.708         -37.0976        -42.7254         -37.0976        -42.7254        -0.020913         144.837
0.592                   -2.17921        -149.705         -37.2819        -44.9164         -37.2819        -44.9163       -0.0209278         144.761
0.593                   -2.05418        -150.726         -37.4601        -46.9917         -37.4601        -46.9917       -0.0209546         144.686
0.594                   -1.94249        -151.762         -37.6317        -48.9617         -37.6317        -48.9616       -0.0209937          144.61
0.595                   -1.84259        -152.808         -37.7964        -50.8357         -37.7964        -50.8356       -0.0210448         144.535
0.596                   -1.75313        -153.859         -37.9539        -52.6222         -37.9539        -52.6221       -0.0211077         144.458
0.597                   -1.67289        -154.912         -38.1041        -54.3291         -38.1041         -54.329       -0.0211821         144.382
0.598                   -1.60085        -155.966         -38.2469        -55.9634          -38.247        -55.9634       -0.0212675         144.306
0.599                   -1.53609        -157.019         -38.3824        -57.5316         -38.3824        -57.5316       -0.0213633         144.229
0.6                     -1.47782         -158.07         -38.5106        -59.0395         -38.5106        -59.0395       -0.0214691         144.152
0.601                   -1.42535        -159.119         -38.6315        -60.4924         -38.6316        -60.4923       -0.0215845         144.074
0.602                   -1.37808        -160.166         -38.7454         -61.895         -38.7454        -61.8949       -0.0217089         143.997
0.603                    -1.3355        -161.211         -38.8523        -63.2516         -38.8523        -63.2516       -0.0218419         143.919
0.604                   -1.29714        -162.254         -38.9524        -64.5663         -38.9524        -64.5662       -0.0219831         143.842
0.605                   -1.26261        -163.296         -39.0458        -65.8425         -39.0458        -65.8425       -0.0221322         143.764
0.606                   -1.23156        -164.336         -39.1327        -67.0836         -39.1327        -67.0835       -0.0222887         143.685
0.607                   -1.20368        -165.377         -39.2132        -68.2925         -39.2132        -68.2924       -0.0224525         143.607
0.608                    -1.1787        -166.417         -39.2876        -69.4719         -39.2876        -69.4719       -0.0226231         143.528
0.609                   -1.15639        -167.458         -39.3559        -70.6244         -39.3559        -70.6243       -0.0228004         143.449
0.61                    -1.13655        -168.501         -39.4184        -71.7521         -39.4184         -71.752       -0.0229842          143.37
0.611                   -1.11898        -169.545         -39.4752        -72.8572         -39.4752        -72.8571       -0.0231741         143.291
0.612                   -1.10353        -170.592         -39.5264        -73.9417         -39.5264        -73.9416       -0.0233701         143.211
0.613                   -1.09006        -171.642         -39.5721        -75.0072         -39.5721        -75.0071        -0.023572         143.132
0.614                   -1.07844        -172.696         -39.6126        -76.0555         -39.6126        -76.0554       -0.0237796         143.052
0.615                   -1.06857        -173.754          -39.648        -77.0881          -39.648         -77.088       -0.0239928         142.971
0.616                   -1.06035        -174.817         -39.6783        -78.1065         -39.6783        -78.1064       -0.0242115         142.891
0.617                    -1.0537        -175.885         -39.7038        -79.1119         -39.7038        -79.1118       -0.0244356          142.81
0.618                   -1.04854         -176.96         -39.7245        -80.1055         -39.7245        -80.1054       -0.0246651          142.73
0.619                   -1.04482        -178.042         -39.7405        -81.0887         -39.7405        -81.0886       -0.0248998         142.648
0.62                    -1.04248        -179.131          -39.752        -82.0625          -39.752        -82.0624       -0.0251397         142.567
0.621                   -1.04148         179.772          -39.759        -83.0279          -39.759        -83.0278       -0.0253847         142.486
0.622                   -1.04177         178.666         -39.7617        -83.9859         -39.7617        -83.9858       -0.0256349         142.404
0.623                   -1.04332         177.552         -39.7602        -84.9374         -39.7602        -84.9373       -0.0258901         142.322
0.624                   -1.04612         176.427         -39.7545        -85.8834         -39.7545        -85.8833       -0.0261504         142.239
0.625                   -1.05013         175.292         -39.7448        -86.8248         -39.7448        -86.8247       -0.0264157         142.157
0.626                   -1.05535         174.147         -39.7311        -87.7622         -39.7311        -87.7621       -0.0266861         142.074
0.627                   -1.06177         172.989         -39.7135        -88.6966         -39.7135        -88.6965       -0.0269615         141.991
0.628                   -1.06939          171.82          -39.692        -89.6286          -39.692        -89.6285       -0.0272419         141.908
0.629                    -1.0782         170.637         -39.6669        -90.5591         -39.6669         -90.559       -0.0275274         141.824
0.63                    -1.08821         169.442         -39.6381        -91.4888         -39.6381        -91.4886        -0.027818          141.74
0.631                   -1.09943         168.232         -39.6057        -92.4182         -39.6057        -92.4181       -0.0281136         141.656
0.632                   -1.11188         167.008         -39.5698        -93.3483         -39.5698        -93.3482       -0.0284144         141.572
0.633                   -1.12557         165.768         -39.5305        -94.2795         -39.5305        -94.2794       -0.0287204         141.487
0.634                   -1.14053         164.512         -39.4877        -95.2126         -39.4877        -95.2125       -0.0290315         141.402
0.635                   -1.15678          163.24         -39.4417        -96.1483         -39.4417        -96.1481       -0.0293478         141.317
0.636                   -1.17436          161.95         -39.3924        -97.0871         -39.3924         -97.087       -0.0296694         141.231
0.637                   -1.19329         160.642         -39.3399        -98.0297         -39.3399        -98.0296       -0.0299964         141.145
0.638                   -1.21363         159.314         -39.2843        -98.9768         -39.2843        -98.9767       -0.0303287         141.059
0.639                   -1.23541         157.968         -39.2256         -99.929         -39.2256        -99.9289       -0.0306664         140.973
0.64                    -1.25868         156.601         -39.1639        -100.887         -39.1639        -100.887       -0.0310096         140.886
0.641                    -1.2835         155.212         -39.0993        -101.851         -39.0993        -101.851       -0.0313583         140.799
0.642                   -1.30992         153.802         -39.0319        -102.822         -39.0318        -102.822       -0.0317127         140.712
0.643                   -1.33801         152.368         -38.9616        -103.801         -38.9616        -103.801       -0.0320727         140.624
0.644                   -1.36783         150.911         -38.8886        -104.788         -38.8885        -104.788       -0.0324385         140.536
0.645                   -1.39946         149.429         -38.8129        -105.784         -38.8129        -105.784       -0.0328101         140.448
0.646                   -1.43297         147.921         -38.7346         -106.79         -38.7346         -106.79       -0.0331876         140.359
0.647                   -1.46844         146.387         -38.6538        -107.806         -38.6537        -107.805       -0.0335711          140.27
0.648                   -1.50598         144.825         -38.5705        -108.832         -38.5705        -108.832       -0.0339606         140.181
0.649                   -1.54566         143.234         -38.4849         -109.87         -38.4848         -109.87       -0.0343563         140.091
0.65                     -1.5876         141.613         -38.3969         -110.92         -38.3969         -110.92       -0.0347583         140.001
0.651                    -1.6319         139.962         -38.3068        -111.983         -38.3068        -111.983       -0.0351665         139.911
0.652                   -1.67867         138.278         -38.2145        -113.059         -38.2145        -113.059       -0.0355812          139.82
0.653                   -1.72803         136.561         -38.1203        -114.149         -38.1202        -114.149       -0.0360025         139.729
0.654                   -1.78012          134.81         -38.0241        -115.253          -38.024        -115.253       -0.0364303         139.637
0.655                   -1.83507         133.023          -37.926        -116.373          -37.926        -116.373        -0.036865         139.545
0.656                   -1.89301         131.199         -37.8263        -117.509         -37.8263        -117.509       -0.0373064         139.453
0.657                    -1.9541         129.336          -37.725        -118.662          -37.725        -118.661       -0.0377549          139.36
0.658                   -2.01849         127.434         -37.6222        -119.831         -37.6222        -119.831       -0.0382104         139.267
0.659                   -2.08635          125.49         -37.5181        -121.018         -37.5181        -121.018       -0.0386731         139.174
0.66                    -2.15784         123.503         -37.4128        -122.223         -37.4128        -122.223       -0.0391432          139.08
0.661                   -2.23315         121.472         -37.3064        -123.447         -37.3064        -123.447       -0.0396208         138.986
0.662                   -2.31245         119.394         -37.1991         -124.69         -37.1991         -124.69        -0.040106         138.891
0.663                   -2.39594         117.269          -37.091        -125.953          -37.091        -125.953        -0.040599         138.796
0.664                   -2.48381         115.094         -36.9824        -127.235         -36.9824        -127.235       -0.0410999         138.701
0.665                   -2.57627         112.867         -36.8734        -128.539         -36.8734        -128.539       -0.0416089         138.605
0.666                   -2.67351         110.588         -36.7641        -129.863         -36.7641        -129.862       -0.0421262         138.508
0.667                   -2.77575         108.252         -36.6548        -131.207         -36.6547        -131.207        -0.042652         138.411
0.668                    -2.8832          105.86         -36.5456        -132.573         -36.5456        -132.573       -0.0431865         138.314
0.669                   -2.99605         103.408         -36.4367        -133.961         -36.4367        -133.961         -0.04373         138.216
0.67                    -3.11453         100.894         -36.3285         -135.37         -36.3285        -135.369       -0.0442826         138.118
0.671                   -3.23882         98.3154          -36.221        -136.799          -36.221        -136.799       -0.0448447         138.019
0.672                   -3.36912         95.6707         -36.1144        -138.251         -36.1144         -138.25       -0.0454165         137.919
0.673                   -3.50561         92.9568         -36.0091        -139.722         -36.0091        -139.722       -0.0459984          137.82
0.674                   -3.64845         90.1713         -35.9052        -141.215         -35.9052        -141.215       -0.0465908         137.719
0.675                   -3.79778         87.3112          -35.803        -142.727          -35.803        -142.727        -0.047194         137.618
0.676                   -3.95372         84.3737         -35.7026        -144.259         -35.7026        -144.259       -0.0478086         137.517
0.677                   -4.11634         81.3558         -35.6043         -145.81         -35.6043         -145.81       -0.0484348         137.415
0.678                   -4.28569         78.2544         -35.5083        -147.378         -35.5083        -147.378       -0.0490734         137.313
0.679                   -4.46175         75.0663         -35.4148        -148.964         -35.4148        -148.964       -0.0497249          137.21
0.68                    -4.64444         71.7879          -35.324        -150.565          -35.324        -150.565       -0.0503898         137.106
0.681                   -4.83361          68.416         -35.2361        -152.181         -35.2361        -152.181       -0.0510688         137.002
0.682                   -5.02904         64.9468         -35.1512        -153.811         -35.1513        -153.811       -0.0517628         136.897
0.683                    -5.2304         61.3768         -35.0696        -155.452         -35.0696        -155.452       -0.0524722         136.792
0.684                   -5.43724         57.7023         -34.9914        -157.105         -34.9914        -157.104        -0.053198         136.686
0.685                   -5.64899         53.9197         -34.9167        -158.766         -34.9167        -158.765       -0.0539408         136.579
0.686                   -5.86494         50.0255         -34.8456        -160.434         -34.8456        -160.434       -0.0547013         136.472
0.687                   -6.08422         46.0165         -34.7782        -162.108         -34.7782        -162.107       -0.0554803         136.364
0.688                   -6.30578         41.8897         -34.7145        -163.785         -34.7145        -163.785       -0.0562783         136.255
0.689                   -6.52839         37.6428         -34.6547        -165.464         -34.6547        -165.464        -0.057096         136.146
0.69                    -6.75064         33.2743         -34.5986        -167.144         -34.5986        -167.144       -0.0579337         136.036
0.691                   -6.97092         28.7834         -34.5464        -168.821         -34.5464        -168.821       -0.0587919         135.926
0.692                   -7.18742         24.1709          -34.498        -170.495          -34.498        -170.495       -0.0596708         135.815
0.693                   -7.39818         19.4388         -34.4534        -172.163         -34.4534        -172.163       -0.0605706         135.703
0.694                   -7.60111         14.5911         -34.4124        -173.825         -34.4124        -173.825       -0.0614914          135.59
0.695                   -7.79399         9.63408         -34.3749        -175.477         -34.3749        -175.477       -0.0624331         135.477
0.696                   -7.97462           4.576         -34.3409        -177.118         -34.3409        -177.118       -0.0633958         135.363