! TOUCHSTONE file generated by CST MICROWAVE STUDIO
! Date and time: Sat Nov 14 20:30:49 2020
! Project name: Scenario_1_Planar_Body_Tissue_Out_of_Line_v2.cst
! Parameters = {dy1=346; L_HA=400; Ltissue=700; MT=2.54; Rad_Dielectric=30; Rad_Lower=7.3; Rad_Upper=30; Wtissue=700; a_HA=580; a_WG=246; b_HA=500; b_WG=121; c_HA=0; c_WG=187; d_feed=85; dx1=173; h_feed=15; h_lower=18; h_upper=40; hfat=3; hgap=25; hmuscle=50; hskin=1.5}
! Header version: 2018
! Port assignment regex: !\s*Touchstone port\s*([0-9]+)\s*=\s*(CST MWS port|CST DS port)\s*([0-9]+|Zmin|Zmax)\s*\(\"(.*)\"\)(\s*mode\s*([0-9]+))?.*
! Touchstone port assignment:
! Touchstone port 1 = CST MWS port 1 ("")
! Touchstone port 2 = CST MWS port 2 ("")
# GHz S DB R 50
0.5                   -0.0782885        -121.832         -70.0665         101.398         -70.0645         101.399      -0.00715741         151.131
0.501                 -0.0804396        -122.277         -69.8719         100.722         -69.8699         100.722       -0.0072221         151.066
0.502                 -0.0827217        -122.726         -69.6752         100.046         -69.6733         100.046      -0.00728789         151.001
0.503                 -0.0851426        -123.178         -69.4764         99.3688         -69.4745         99.3682      -0.00735479         150.935
0.504                 -0.0877107        -123.633         -69.2754         98.6905         -69.2735         98.6897      -0.00742279          150.87
0.505                 -0.0904349        -124.092          -69.072         98.0108         -69.0702         98.0098       -0.0074919         150.804
0.506                 -0.0933246        -124.555         -68.8663         97.3293         -68.8646          97.328      -0.00756213         150.738
0.507                 -0.0963899        -125.022         -68.6582         96.6455         -68.6566          96.644      -0.00763348         150.672
0.508                 -0.0996415        -125.492         -68.4476         95.9591          -68.446         95.9573      -0.00770595         150.607
0.509                  -0.103091        -125.967         -68.2345         95.2695          -68.233         95.2675      -0.00777956         150.541
0.51                    -0.10675        -126.445         -68.0188         94.5762         -68.0173         94.5741      -0.00785431         150.475
0.511                  -0.110632        -126.927         -67.8004         93.8789          -67.799         93.8766       -0.0079302         150.408
0.512                  -0.114751        -127.414         -67.5793         93.1769         -67.5779         93.1745      -0.00800724         150.342
0.513                  -0.119121        -127.904         -67.3554         92.4697         -67.3541         92.4671      -0.00808544         150.276
0.514                  -0.123758        -128.399         -67.1286         91.7568         -67.1274          91.754      -0.00816479          150.21
0.515                  -0.128679        -128.899          -66.899         91.0374         -66.8978         91.0345      -0.00824532         150.143
0.516                  -0.133902        -129.403         -66.6663         90.3109         -66.6652         90.3079      -0.00832702         150.077
0.517                  -0.139446        -129.911         -66.4306         89.5767         -66.4296         89.5736      -0.00840989          150.01
0.518                  -0.145332        -130.424         -66.1918         88.8341         -66.1909         88.8309      -0.00849395         149.944
0.519                  -0.151581        -130.942         -65.9499         88.0823          -65.949          88.079       -0.0085792         149.877
0.52                   -0.158217        -131.465         -65.7047         87.3205         -65.7039         87.3172      -0.00866565          149.81
0.521                  -0.165265        -131.993         -65.4563         86.5479         -65.4555         86.5446      -0.00875329         149.743
0.522                  -0.172753        -132.526         -65.2046         85.7637         -65.2039         85.7603      -0.00884214         149.676
0.523                  -0.180708        -133.064         -64.9495         84.9669         -64.9488         84.9636      -0.00893218         149.609
0.524                  -0.189162        -133.608          -64.691         84.1567         -64.6904         84.1533      -0.00902343         149.542
0.525                  -0.198148        -134.156          -64.429          83.332         -64.4285         83.3287      -0.00911587         149.475
0.526                  -0.207702        -134.711         -64.1636         82.4919         -64.1631         82.4886      -0.00920951         149.407
0.527                  -0.217862        -135.271         -63.8946         81.6352         -63.8942          81.632      -0.00930431          149.34
0.528                  -0.228668        -135.836         -63.6221          80.761         -63.6217         80.7578      -0.00940027         149.272
0.529                  -0.240165        -136.408          -63.346          79.868         -63.3456         79.8649      -0.00949734         149.205
0.53                   -0.252399        -136.985         -63.0663          78.955          -63.066          78.952      -0.00959547         149.137
0.531                  -0.265423        -137.568         -62.7829         78.0208         -62.7827         78.0179      -0.00969459         149.069
0.532                  -0.279289        -138.157          -62.496         77.0642         -62.4958         77.0614      -0.00979459         149.001
0.533                  -0.294056        -138.752         -62.2055         76.0838         -62.2053         76.0811      -0.00989532         148.934
0.534                  -0.309787        -139.354         -61.9113         75.0782         -61.9112         75.0756      -0.00999656         148.865
0.535                  -0.326549        -139.961         -61.6136         74.0459         -61.6135         74.0436        -0.010098         148.797
0.536                  -0.344414        -140.575         -61.3123         72.9856         -61.3123         72.9834       -0.0101992         148.729
0.537                   -0.36346        -141.195         -61.0074         71.8957         -61.0075         71.8936       -0.0102997         148.661
0.538                  -0.383768        -141.821         -60.6991         70.7746         -60.6992         70.7727       -0.0103985         148.593
0.539                  -0.405427        -142.453         -60.3874         69.6207         -60.3875          69.619       -0.0104946         148.524
0.54                   -0.428533        -143.091         -60.0724         68.4323         -60.0725         68.4308       -0.0105867         148.456
0.541                  -0.453185        -143.735         -59.7541         67.2078         -59.7543         67.2064       -0.0106735         148.387
0.542                  -0.479491        -144.385         -59.4327         65.9453         -59.4329         65.9441       -0.0107539         148.318
0.543                  -0.507565         -145.04         -59.1083         64.6431         -59.1085         64.6421       -0.0108277         148.249
0.544                  -0.537529        -145.701          -58.781         63.2994         -58.7812         63.2986        -0.010897          148.18
0.545                  -0.569511        -146.366          -58.451         61.9123         -58.4512         61.9117       -0.0109665         148.111
0.546                  -0.603645        -147.036         -58.1185         60.4799         -58.1188         60.4795       -0.0110425         148.041
0.547                  -0.640073         -147.71         -57.7837         59.0004         -57.7839         59.0001       -0.0111308         147.972
0.548                  -0.678942        -148.386         -57.4468         57.4718         -57.4471         57.4717        -0.011234         147.902
0.549                  -0.720406        -149.066         -57.1081         55.8923         -57.1084         55.8924       -0.0113513         147.832
0.55                   -0.764622        -149.747         -56.7679           54.26         -56.7681         54.2603       -0.0114795         147.762
0.551                   -0.81175        -150.428         -56.4265         52.5731         -56.4267         52.5735        -0.011615         147.692
0.552                  -0.861951        -151.109         -56.0842         50.8299         -56.0845         50.8304        -0.011755         147.622
0.553                  -0.915385        -151.788         -55.7415         49.0285         -55.7417         49.0291       -0.0118974         147.551
0.554                  -0.972207        -152.463         -55.3987         47.1674          -55.399         47.1682       -0.0120411         147.481
0.555                   -1.03256        -153.133         -55.0564         45.2453         -55.0566         45.2461       -0.0121854         147.411
0.556                   -1.09659        -153.795          -54.715         43.2607         -54.7152         43.2616       -0.0123299          147.34
0.557                   -1.16439        -154.446         -54.3751         41.2125         -54.3753         41.2135       -0.0124748          147.27
0.558                   -1.23606        -155.085         -54.0371            39.1         -54.0373         39.1011       -0.0126199         147.199
0.559                   -1.31165        -155.709         -53.7018         36.9225          -53.702         36.9236       -0.0127654         147.128
0.56                    -1.39117        -156.313         -53.3698         34.6798         -53.3699         34.6809       -0.0129114         147.057
0.561                   -1.47456        -156.895         -53.0416         32.3718         -53.0418         32.3729        -0.013058         146.986
0.562                   -1.56171        -157.451         -52.7181         29.9991         -52.7182         30.0003       -0.0132053         146.915
0.563                   -1.65242        -157.976         -52.3998         27.5627         -52.3999         27.5638       -0.0133534         146.844
0.564                   -1.74641        -158.467         -52.0875         25.0638         -52.0877         25.0648       -0.0135024         146.772
0.565                   -1.84327         -158.92          -51.782         22.5043         -51.7821         22.5053       -0.0136524         146.701
0.566                   -1.94249        -159.329         -51.4838         19.8867         -51.4839         19.8876       -0.0138035         146.629
0.567                   -2.04343        -159.692         -51.1938         17.2138         -51.1938         17.2147       -0.0139557         146.557
0.568                   -2.14531        -160.005         -50.9124         14.4891         -50.9124         14.4899       -0.0141091         146.485
0.569                   -2.24722        -160.264         -50.6404         11.7166         -50.6404         11.7173       -0.0142638         146.413
0.57                    -2.34813        -160.467         -50.3782         8.90059         -50.3782         8.90121       -0.0144197         146.341
0.571                   -2.44688        -160.614         -50.1263         6.04602         -50.1263         6.04654       -0.0145771         146.269
0.572                   -2.54224        -160.703         -49.8852         3.15809         -49.8852         3.15851       -0.0147358         146.196
0.573                   -2.63291        -160.736         -49.6551        0.242332         -49.6551        0.242652       -0.0148959         146.124
0.574                    -2.7176        -160.715         -49.4362        -2.69554         -49.4363        -2.69531       -0.0150576         146.051
0.575                   -2.79502        -160.646         -49.2287        -5.64966         -49.2288        -5.64952       -0.0152207         145.978
0.576                   -2.86402        -160.534         -49.0326        -8.61417         -49.0327        -8.61412       -0.0153854         145.905
0.577                   -2.92355        -160.387         -48.8478        -11.5833         -48.8478        -11.5833       -0.0155516         145.832
0.578                   -2.97281        -160.213          -48.674        -14.5514         -48.6741        -14.5515       -0.0157194         145.759
0.579                    -3.0112        -160.021         -48.5111         -17.513         -48.5112        -17.5132       -0.0158889         145.685
0.58                     -3.0384        -159.822         -48.3587        -20.4633         -48.3588        -20.4635         -0.01606         145.612
0.581                   -3.05436        -159.626         -48.2164        -23.3975         -48.2165        -23.3978       -0.0162328         145.538
0.582                   -3.05931        -159.443         -48.0836        -26.3115         -48.0837        -26.3118       -0.0164072         145.464
0.583                   -3.05373        -159.282         -47.9599        -29.2016           -47.96        -29.2019       -0.0165835          145.39
0.584                   -3.03832        -159.152         -47.8447        -32.0645         -47.8448        -32.0648       -0.0167614         145.316
0.585                   -3.01392         -159.06         -47.7374        -34.8975         -47.7375        -34.8979       -0.0169412         145.241
0.586                   -2.98153        -159.012         -47.6374        -37.6984         -47.6375        -37.6988       -0.0171227         145.167
0.587                   -2.94221        -159.013         -47.5441        -40.4656         -47.5442         -40.466       -0.0173061         145.092
0.588                   -2.89703        -159.065         -47.4568        -43.1976         -47.4569         -43.198       -0.0174913         145.017
0.589                   -2.84707        -159.171         -47.3751        -45.8936         -47.3752         -45.894       -0.0176784         144.942
0.59                    -2.79336        -159.331         -47.2984        -48.5532         -47.2985        -48.5536       -0.0178674         144.867
0.591                   -2.73688        -159.546          -47.226        -51.1762         -47.2262        -51.1765       -0.0180584         144.791
0.592                   -2.67848        -159.814         -47.1576        -53.7626         -47.1577         -53.763       -0.0182512         144.716
0.593                   -2.61898        -160.134         -47.0925         -56.313         -47.0927        -56.3133       -0.0184461          144.64
0.594                   -2.55906        -160.505         -47.0305        -58.8279         -47.0306        -58.8282       -0.0186429         144.564
0.595                   -2.49932        -160.924         -46.9709        -61.3081          -46.971        -61.3085       -0.0188418         144.488
0.596                   -2.44027        -161.388         -46.9135        -63.7547         -46.9136         -63.755       -0.0190427         144.412
0.597                   -2.38234        -161.895         -46.8579        -66.1685         -46.8581        -66.1689       -0.0192457         144.335
0.598                   -2.32589        -162.443         -46.8039        -68.5509          -46.804        -68.5513       -0.0194508         144.259
0.599                   -2.27119        -163.029          -46.751        -70.9031         -46.7511        -70.9034        -0.019658         144.182
0.6                     -2.21847         -163.65          -46.699        -73.2263         -46.6991        -73.2266       -0.0198674         144.105
0.601                   -2.16791        -164.304         -46.6478        -75.5217         -46.6479        -75.5221        -0.020079         144.028
0.602                   -2.11963         -164.99          -46.597        -77.7909         -46.5971        -77.7912       -0.0202927          143.95
0.603                   -2.07373        -165.705         -46.5466        -80.0349         -46.5467        -80.0352       -0.0205087         143.873
0.604                   -2.03027        -166.447         -46.4963        -82.2552         -46.4964        -82.2555        -0.020727         143.795
0.605                    -1.9893        -167.215          -46.446         -84.453         -46.4461        -84.4533       -0.0209476         143.717
0.606                   -1.95084        -168.007         -46.3956        -86.6296         -46.3957        -86.6299       -0.0211705         143.639
0.607                   -1.91488        -168.822          -46.345        -88.7861         -46.3451        -88.7864       -0.0213957         143.561
0.608                   -1.88143        -169.658         -46.2941        -90.9238         -46.2942        -90.9241       -0.0216234         143.482
0.609                   -1.85047        -170.515         -46.2428        -93.0438         -46.2429        -93.0442       -0.0218535         143.403
0.61                    -1.82198        -171.391         -46.1911        -95.1473         -46.1911        -95.1476        -0.022086         143.324
0.611                   -1.79592        -172.286         -46.1388        -97.2352         -46.1388        -97.2355        -0.022321         143.245
0.612                   -1.77228        -173.199         -46.0859        -99.3086          -46.086        -99.3089       -0.0225586         143.166
0.613                   -1.75102        -174.129         -46.0325        -101.368         -46.0326        -101.369       -0.0227987         143.086
0.614                   -1.73212        -175.077         -45.9785        -103.416         -45.9785        -103.416       -0.0230414         143.006
0.615                   -1.71554         -176.04         -45.9238        -105.451         -45.9238        -105.452       -0.0232867         142.926
0.616                   -1.70125         -177.02         -45.8684        -107.476         -45.8685        -107.476       -0.0235347         142.846
0.617                   -1.68925        -178.016         -45.8124        -109.491         -45.8125        -109.491       -0.0237855         142.765
0.618                   -1.67949        -179.027         -45.7557        -111.496         -45.7558        -111.496        -0.024039         142.685
0.619                   -1.67198         179.947         -45.6983        -113.493         -45.6984        -113.493       -0.0242953         142.604
0.62                    -1.66669         178.905         -45.6403        -115.482         -45.6404        -115.482       -0.0245544         142.522
0.621                   -1.66361         177.848         -45.5816        -117.464         -45.5817        -117.464       -0.0248165         142.441
0.622                   -1.66275         176.776         -45.5222        -119.439         -45.5223         -119.44       -0.0250815         142.359
0.623                    -1.6641         175.689         -45.4622        -121.409         -45.4623        -121.409       -0.0253494         142.277
0.624                   -1.66766         174.586         -45.4016        -123.373         -45.4017        -123.374       -0.0256204         142.195
0.625                   -1.67345         173.468         -45.3404        -125.333         -45.3404        -125.333       -0.0258945         142.112
0.626                   -1.68147         172.335         -45.2785        -127.288         -45.2786        -127.289       -0.0261717          142.03
0.627                   -1.69175         171.186         -45.2161         -129.24         -45.2162         -129.24       -0.0264522         141.947
0.628                   -1.70432         170.021         -45.1532        -131.188         -45.1533        -131.189       -0.0267359         141.863
0.629                    -1.7192          168.84         -45.0897        -133.134         -45.0898        -133.135       -0.0270228          141.78
0.63                    -1.73642         167.644         -45.0258        -135.078         -45.0258        -135.078       -0.0273132         141.696
0.631                   -1.75603          166.43         -44.9614         -137.02         -44.9614         -137.02        -0.027607         141.612
0.632                   -1.77807           165.2         -44.8965         -138.96         -44.8966        -138.961       -0.0279043         141.528
0.633                   -1.80259         163.953         -44.8313          -140.9         -44.8313          -140.9       -0.0282052         141.443
0.634                   -1.82964         162.689         -44.7656        -142.839         -44.7657        -142.839       -0.0285098         141.358
0.635                    -1.8593         161.407         -44.6997        -144.778         -44.6997        -144.778        -0.028818         141.273
0.636                   -1.89163         160.107         -44.6334        -146.717         -44.6335        -146.717       -0.0291301         141.187
0.637                   -1.92669         158.789         -44.5669        -148.656         -44.5669        -148.656        -0.029446         141.101
0.638                   -1.96458         157.453         -44.5001        -150.596         -44.5002        -150.597       -0.0297659         141.015
0.639                   -2.00537         156.098         -44.4332        -152.538         -44.4332        -152.538       -0.0300899         140.929
0.64                    -2.04916         154.723         -44.3661        -154.481         -44.3661        -154.481        -0.030418         140.842
0.641                   -2.09604         153.329         -44.2989        -156.426         -44.2989        -156.426       -0.0307503         140.755
0.642                   -2.14612         151.914         -44.2316        -158.372         -44.2317        -158.373        -0.031087         140.668
0.643                   -2.19951          150.48         -44.1644        -160.322         -44.1644        -160.322       -0.0314281          140.58
0.644                   -2.25632         149.024         -44.0971        -162.273         -44.0972        -162.273       -0.0317737         140.492
0.645                   -2.31669         147.548           -44.03        -164.228           -44.03        -164.228       -0.0321241         140.403
0.646                   -2.38074         146.049          -43.963        -166.186          -43.963        -166.186       -0.0324792         140.315
0.647                   -2.44861         144.529         -43.8962        -168.146         -43.8962        -168.146       -0.0328392         140.226
0.648                   -2.52045         142.987         -43.8296        -170.111         -43.8297        -170.111       -0.0332042         140.136
0.649                   -2.59642         141.421         -43.7634        -172.079         -43.7634        -172.079       -0.0335744         140.046
0.65                    -2.67666         139.832         -43.6975        -174.051         -43.6975        -174.051         -0.03395         139.956
0.651                   -2.76136          138.22          -43.632        -176.026          -43.632        -176.026       -0.0343309         139.866
0.652                   -2.85068         136.584          -43.567        -178.006          -43.567        -178.006       -0.0347175         139.775
0.653                   -2.94482         134.923         -43.5025         -179.99         -43.5025         -179.99       -0.0351098         139.683
0.654                   -3.04397         133.237         -43.4386         178.022         -43.4387         178.022       -0.0355081         139.592
0.655                   -3.14833         131.525         -43.3755          176.03         -43.3755          176.03       -0.0359125           139.5
0.656                   -3.25811         129.788          -43.313         174.033          -43.313         174.033       -0.0363232         139.407
0.657                   -3.37353         128.024         -43.2514         172.032         -43.2514         172.032       -0.0367403         139.314
0.658                   -3.49482         126.233         -43.1906         170.026         -43.1906         170.026       -0.0371641         139.221
0.659                   -3.62222         124.415         -43.1308         168.017         -43.1308         168.017       -0.0375948         139.127
0.66                    -3.75597         122.569          -43.072         166.003          -43.072         166.003       -0.0380325         139.033
0.661                   -3.89634         120.694         -43.0143         163.985         -43.0143         163.985       -0.0384776         138.939
0.662                    -4.0436          118.79         -42.9578         161.963         -42.9577         161.963       -0.0389302         138.844
0.663                   -4.19801         116.856         -42.9024         159.937         -42.9024         159.937       -0.0393906         138.748
0.664                   -4.35987         114.892         -42.8484         157.908         -42.8484         157.908        -0.039859         138.653
0.665                   -4.52949         112.897         -42.7958         155.875         -42.7958         155.875       -0.0403357         138.556
0.666                   -4.70716         110.869         -42.7446         153.839         -42.7445         153.839        -0.040821         138.459
0.667                   -4.89322         108.809         -42.6949           151.8         -42.6948           151.8        -0.041315         138.362
0.668                   -5.08799         106.714         -42.6467         149.759         -42.6467         149.759       -0.0418182         138.264
0.669                   -5.29184         104.584         -42.6002         147.715         -42.6002         147.716       -0.0423308         138.166
0.67                    -5.50511         102.418         -42.5554          145.67         -42.5554          145.67       -0.0428531         138.068
0.671                   -5.72819         100.213         -42.5124         143.623         -42.5124         143.624       -0.0433855         137.968
0.672                   -5.96146         97.9694         -42.4712         141.576         -42.4711         141.576       -0.0439282         137.869
0.673                   -6.20533         95.6838         -42.4318         139.528         -42.4318         139.528       -0.0444816         137.768
0.674                   -6.46021         93.3545         -42.3944         137.479         -42.3943          137.48        -0.045046         137.668
0.675                   -6.72655         90.9788         -42.3589         135.432         -42.3589         135.432       -0.0456218         137.566
0.676                   -7.00478         88.5541         -42.3254         133.385         -42.3254         133.385       -0.0462094         137.464
0.677                   -7.29539         86.0767         -42.2939         131.341         -42.2939         131.341       -0.0468092         137.362
0.678                   -7.59885          83.543         -42.2646         129.298         -42.2645         129.298       -0.0474214         137.259
0.679                   -7.91564         80.9484         -42.2373         127.258         -42.2372         127.259       -0.0480466         137.156
0.68                    -8.24629         78.2876         -42.2121         125.222          -42.212         125.223       -0.0486852         137.051
0.681                   -8.59128         75.5546          -42.189          123.19          -42.189         123.191       -0.0493375         136.947
0.682                   -8.95113         72.7423         -42.1681         121.163          -42.168         121.164       -0.0500039         136.841
0.683                   -9.32633         69.8425         -42.1493         119.142         -42.1492         119.142        -0.050685         136.735
0.684                   -9.71735         66.8454         -42.1326         117.127         -42.1326         117.127       -0.0513812         136.629
0.685                   -10.1246         63.7399         -42.1181         115.118          -42.118         115.119       -0.0520928         136.522
0.686                   -10.5484         60.5128         -42.1056         113.118         -42.1056         113.118       -0.0528205         136.414
0.687                    -10.989         57.1489         -42.0952         111.125         -42.0952         111.125       -0.0535646         136.306
0.688                   -11.4463         53.6301         -42.0869         109.141         -42.0869         109.142       -0.0543257         136.196
0.689                   -11.9202         49.9359         -42.0806         107.167         -42.0806         107.168       -0.0551041         136.087
0.69                      -12.41         46.0422         -42.0762         105.204         -42.0762         105.204       -0.0559006         135.976
0.691                   -12.9144         41.9217         -42.0738         103.251         -42.0738         103.251       -0.0567155         135.865
0.692                   -13.4316         37.5433         -42.0733         101.309         -42.0732          101.31       -0.0575493         135.753
0.693                   -13.9584         32.8726         -42.0745         99.3803         -42.0745         99.3805       -0.0584027         135.641
0.694                   -14.4905         27.8727         -42.0775         97.4638         -42.0775          97.464       -0.0592761         135.527
0.695                   -15.0217         22.5056         -42.0822         95.5606         -42.0822         95.5609       -0.0601701         135.413
0.696                   -15.5437         16.7359         -42.0885         93.6713         -42.0885         93.6715       -0.0610853         135.299