! TOUCHSTONE file generated by CST MICROWAVE STUDIO
! Date and time: Sat Nov 14 19:58:00 2020
! Project name: Scenario_1_Planar_Body_Tissue_Out_of_Line.cst
! Parameters = {dy1=346; L_HA=400; Ltissue=700; MT=2.54; Rad_Dielectric=30; Rad_Lower=7.3; Rad_Upper=30; Wtissue=700; a_HA=580; a_WG=246; b_HA=500; b_WG=121; c_HA=0; c_WG=187; d_feed=85; dx1=693; h_feed=15; h_lower=18; h_upper=40; hfat=3; hgap=25; hmuscle=50; hskin=1.5}
! Header version: 2018
! Port assignment regex: !\s*Touchstone port\s*([0-9]+)\s*=\s*(CST MWS port|CST DS port)\s*([0-9]+|Zmin|Zmax)\s*\(\"(.*)\"\)(\s*mode\s*([0-9]+))?.*
! Touchstone port assignment:
! Touchstone port 1 = CST MWS port 1 ("")
! Touchstone port 2 = CST MWS port 2 ("")
# GHz S DB R 50
0.5                    -0.170204        -121.694         -63.7292         158.686         -63.7287         158.687      -0.00770203          151.16
0.501                   -0.17332        -122.115         -63.6602          156.71         -63.6596         156.711       -0.0077566         151.094
0.502                  -0.176501        -122.538         -63.5885         154.725          -63.588         154.726      -0.00781212         151.029
0.503                  -0.179752        -122.964         -63.5143         152.732         -63.5137         152.732      -0.00786859         150.964
0.504                  -0.183076        -123.393         -63.4374         150.731         -63.4369         150.731      -0.00792604         150.898
0.505                  -0.186476        -123.824          -63.358         148.723         -63.3575         148.723      -0.00798447         150.833
0.506                  -0.189959        -124.259         -63.2761         146.708         -63.2755         146.708      -0.00804389         150.767
0.507                  -0.193527        -124.696         -63.1917         144.688         -63.1911         144.688      -0.00810431         150.702
0.508                  -0.197187        -125.136         -63.1048         142.662         -63.1043         142.662      -0.00816575         150.636
0.509                  -0.200943         -125.58         -63.0156         140.631          -63.015         140.631      -0.00822821          150.57
0.51                   -0.204801        -126.026          -62.924         138.596         -62.9235         138.596       -0.0082917         150.504
0.511                  -0.208767        -126.475         -62.8301         136.558         -62.8296         136.557      -0.00835624         150.438
0.512                  -0.212847        -126.928          -62.734         134.516         -62.7335         134.516      -0.00842184         150.372
0.513                  -0.217047        -127.384         -62.6357         132.472         -62.6352         132.471       -0.0084885         150.306
0.514                  -0.221375        -127.843         -62.5353         130.425         -62.5348         130.425      -0.00855624          150.24
0.515                  -0.225838        -128.305         -62.4329         128.377         -62.4324         128.377      -0.00862507         150.174
0.516                  -0.230444        -128.771         -62.3285         126.328          -62.328         126.328        -0.008695         150.107
0.517                    -0.2352        -129.241         -62.2222         124.279         -62.2217         124.278      -0.00876604         150.041
0.518                  -0.240117        -129.714          -62.114         122.229         -62.1135         122.228       -0.0088382         149.974
0.519                  -0.245203         -130.19         -62.0041         120.179         -62.0036         120.179      -0.00891149         149.908
0.52                   -0.250469         -130.67         -61.8925          118.13          -61.892          118.13      -0.00898593         149.841
0.521                  -0.255924        -131.154         -61.7792         116.083         -61.7788         116.082      -0.00906152         149.774
0.522                  -0.261581        -131.642         -61.6644         114.037          -61.664         114.036      -0.00913828         149.707
0.523                   -0.26745        -132.134         -61.5481         111.992         -61.5477         111.992      -0.00921621          149.64
0.524                  -0.273546        -132.629         -61.4304          109.95           -61.43          109.95      -0.00929533         149.573
0.525                  -0.279882        -133.129         -61.3113         107.911         -61.3109         107.911      -0.00937565         149.506
0.526                  -0.286471        -133.633          -61.191         105.875         -61.1906         105.874      -0.00945717         149.439
0.527                   -0.29333        -134.141         -61.0694         103.842          -61.069         103.841      -0.00953991         149.371
0.528                  -0.300475        -134.653         -60.9466         101.812         -60.9463         101.812      -0.00962387         149.304
0.529                  -0.307922        -135.169         -60.8228         99.7871         -60.8224          99.787      -0.00970908         149.236
0.53                   -0.315692         -135.69         -60.6978          97.766         -60.6975         97.7661      -0.00979552         149.169
0.531                  -0.323803        -136.216         -60.5719         95.7495         -60.5716         95.7497      -0.00988322         149.101
0.532                  -0.332278        -136.746          -60.445         93.7378         -60.4447         93.7382      -0.00997219         149.033
0.533                  -0.341137         -137.28         -60.3171         91.7312         -60.3168         91.7317       -0.0100624         148.965
0.534                  -0.350406        -137.819         -60.1883           89.73         -60.1881         89.7306       -0.0101539         148.897
0.535                   -0.36011        -138.364         -60.0587         87.7343         -60.0585          87.735       -0.0102468         148.829
0.536                  -0.370276        -138.912         -59.9282         85.7443         -59.9279         85.7453       -0.0103409         148.761
0.537                  -0.380933        -139.466         -59.7968         83.7604         -59.7966         83.7615       -0.0104363         148.693
0.538                  -0.392112        -140.025         -59.6646         81.7826         -59.6644         81.7839        -0.010533         148.624
0.539                  -0.403847        -140.589         -59.5315         79.8112         -59.5313         79.8126       -0.0106311         148.556
0.54                   -0.416172        -141.158         -59.3976         77.8462         -59.3974         77.8478       -0.0107305         148.487
0.541                  -0.429125        -141.731         -59.2628         75.8878         -59.2626         75.8896       -0.0108312         148.418
0.542                  -0.442746        -142.311          -59.127         73.9361         -59.1268          73.938       -0.0109333          148.35
0.543                  -0.457077        -142.895         -58.9903         71.9911         -58.9902         71.9932       -0.0110367         148.281
0.544                  -0.472162        -143.484         -58.8527         70.0528         -58.8525         70.0551       -0.0111415         148.212
0.545                  -0.488051        -144.079         -58.7139         68.1212         -58.7137         68.1237       -0.0112477         148.142
0.546                  -0.504792        -144.679         -58.5741         66.1963         -58.5739         66.1989       -0.0113553         148.073
0.547                   -0.52244        -145.284          -58.433         64.2779         -58.4328         64.2807       -0.0114643         148.004
0.548                  -0.541052        -145.894         -58.2907         62.3658         -58.2905         62.3687       -0.0115746         147.934
0.549                  -0.560686        -146.509          -58.147         60.4597         -58.1468         60.4628       -0.0116864         147.865
0.55                   -0.581406        -147.129         -58.0018         58.5593         -58.0016         58.5625       -0.0117996         147.795
0.551                  -0.603278        -147.754          -57.855          56.664         -57.8547         56.6674       -0.0119143         147.725
0.552                  -0.626369        -148.383         -57.7064         54.7735         -57.7062         54.7769       -0.0120304         147.655
0.553                  -0.650753        -149.016         -57.5561         52.8869         -57.5558         52.8904       -0.0121479         147.585
0.554                  -0.676503        -149.654         -57.4037         51.0035         -57.4035         51.0071       -0.0122669         147.515
0.555                  -0.703695        -150.296         -57.2493         49.1223          -57.249          49.126       -0.0123874         147.445
0.556                  -0.732409        -150.941         -57.0926         47.2422         -57.0923         47.2459       -0.0125094         147.374
0.557                  -0.762723        -151.589         -56.9334          45.362         -56.9331         45.3657       -0.0126329         147.304
0.558                  -0.794719        -152.239         -56.7718         43.4801         -56.7714         43.4838       -0.0127579         147.233
0.559                  -0.828476        -152.891         -56.6075         41.5949         -56.6071         41.5985       -0.0128844         147.162
0.56                   -0.864073        -153.545         -56.4403         39.7045           -56.44         39.7081       -0.0130125         147.091
0.561                  -0.901584        -154.199         -56.2704         37.8069           -56.27         37.8103       -0.0131421          147.02
0.562                   -0.94108        -154.853         -56.0974         35.8996          -56.097          35.903       -0.0132733         146.949
0.563                  -0.982626        -155.505         -55.9215         33.9803          -55.921         33.9835       -0.0134061         146.878
0.564                   -1.02628        -156.155         -55.7425         32.0461          -55.742         32.0492       -0.0135405         146.806
0.565                   -1.07207        -156.801         -55.5605         30.0942         -55.5601         30.0971       -0.0136764         146.735
0.566                   -1.12004        -157.442         -55.3757         28.1215         -55.3752         28.1241        -0.013814         146.663
0.567                    -1.1702        -158.077          -55.188         26.1247         -55.1875         26.1272       -0.0139531         146.591
0.568                   -1.22252        -158.705         -54.9978         24.1007         -54.9974         24.1029       -0.0140939          146.52
0.569                   -1.27698        -159.322         -54.8054         22.0462         -54.8049         22.0481       -0.0142364         146.447
0.57                     -1.3335        -159.929          -54.611         19.9578         -54.6105         19.9595       -0.0143804         146.375
0.571                   -1.39197        -160.523         -54.4151         17.8326         -54.4146          17.834       -0.0145262         146.303
0.572                   -1.45225        -161.102         -54.2183         15.6678         -54.2178          15.669       -0.0146735          146.23
0.573                   -1.51416        -161.665          -54.021         13.4609         -54.0206         13.4618       -0.0148226         146.158
0.574                   -1.57745        -162.209         -53.8241           11.21         -53.8237         11.2107       -0.0149733         146.085
0.575                   -1.64185        -162.734         -53.6283         8.91362         -53.6279          8.9141       -0.0151256         146.012
0.576                   -1.70702        -163.237         -53.4342         6.57115         -53.4339         6.57145       -0.0152796         145.939
0.577                   -1.77259        -163.718         -53.2429         4.18264         -53.2426         4.18279       -0.0154353         145.866
0.578                   -1.83813        -164.176          -53.055         1.74903         -53.0547         1.74905       -0.0155927         145.793
0.579                   -1.90317        -164.609         -52.8715       -0.727897         -52.8712       -0.727969       -0.0157517         145.719
0.58                    -1.96721        -165.019         -52.6931        -3.24546         -52.6929        -3.24559       -0.0159123         145.645
0.581                   -2.02974        -165.404         -52.5206        -5.80015         -52.5204        -5.80031       -0.0160746         145.572
0.582                   -2.09023        -165.767         -52.3546        -8.38769         -52.3544        -8.38785       -0.0162386         145.498
0.583                   -2.14815        -166.108         -52.1956        -11.0032         -52.1955        -11.0033       -0.0164042         145.424
0.584                     -2.203         -166.43         -52.0441        -13.6411          -52.044        -13.6412       -0.0165714         145.349
0.585                   -2.25432        -166.734         -51.9004        -16.2958         -51.9003        -16.2959       -0.0167403         145.275
0.586                    -2.3017        -167.025         -51.7645        -18.9613         -51.7645        -18.9613       -0.0169109           145.2
0.587                   -2.34479        -167.305         -51.6366        -21.6318         -51.6366        -21.6317       -0.0170831         145.126
0.588                   -2.38333        -167.578         -51.5164        -24.3014         -51.5164        -24.3012        -0.017257         145.051
0.589                   -2.41716        -167.849         -51.4037        -26.9648         -51.4037        -26.9646       -0.0174326         144.976
0.59                    -2.44619        -168.121         -51.2982        -29.6171         -51.2982        -29.6169       -0.0176099           144.9
0.591                   -2.47043        -168.398         -51.1994         -32.254         -51.1993        -32.2537        -0.017789         144.825
0.592                      -2.49        -168.685         -51.1067        -34.8717         -51.1067        -34.8714       -0.0179698         144.749
0.593                   -2.50508        -168.986         -51.0196        -37.4671         -51.0196        -37.4668       -0.0181525         144.674
0.594                   -2.51593        -169.304         -50.9375        -40.0378         -50.9375        -40.0375       -0.0183371         144.598
0.595                    -2.5229        -169.642         -50.8599         -42.582         -50.8598        -42.5817       -0.0185237         144.521
0.596                   -2.52635        -170.003          -50.786        -45.0984          -50.786        -45.0981       -0.0187123         144.445
0.597                   -2.52669         -170.39         -50.7153        -47.5864         -50.7153        -47.5861        -0.018903         144.369
0.598                   -2.52436        -170.804         -50.6473        -50.0457         -50.6472        -50.0454        -0.019096         144.292
0.599                   -2.51981        -171.246         -50.5813        -52.4765         -50.5813        -52.4763       -0.0192913         144.215
0.6                     -2.51347        -171.719          -50.517        -54.8794          -50.517        -54.8792        -0.019489         144.138
0.601                    -2.5058        -172.221         -50.4539        -57.2552         -50.4539        -57.2551       -0.0196893         144.061
0.602                    -2.4972        -172.755         -50.3915        -59.6049         -50.3915        -59.6049       -0.0198923         143.983
0.603                   -2.48808         -173.32         -50.3295        -61.9298         -50.3295        -61.9299        -0.020098         143.906
0.604                   -2.47882        -173.915         -50.2676        -64.2313         -50.2676        -64.2315       -0.0203067         143.828
0.605                   -2.46976        -174.541         -50.2054        -66.5108         -50.2054         -66.511       -0.0205184          143.75
0.606                   -2.46122        -175.197         -50.1428        -68.7698         -50.1428        -68.7701       -0.0207333         143.671
0.607                   -2.45349        -175.883         -50.0795        -71.0099         -50.0795        -71.0102       -0.0209514         143.593
0.608                   -2.44685        -176.596         -50.0154        -73.2325         -50.0153        -73.2328       -0.0211729         143.514
0.609                   -2.44154        -177.338         -49.9502        -75.4393         -49.9502        -75.4396       -0.0213979         143.435
0.61                    -2.43778        -178.107         -49.8838        -77.6317         -49.8838        -77.6321       -0.0216263         143.356
0.611                   -2.43576        -178.902         -49.8162        -79.8111         -49.8162        -79.8116       -0.0218585         143.277
0.612                   -2.43567        -179.723         -49.7473        -81.9792         -49.7473        -81.9796       -0.0220943         143.197
0.613                   -2.43768         179.432          -49.677        -84.1371          -49.677        -84.1376       -0.0223339         143.117
0.614                   -2.44194         178.562         -49.6052        -86.2863         -49.6052        -86.2868       -0.0225774         143.037
0.615                   -2.44859         177.669          -49.532        -88.4279          -49.532        -88.4285       -0.0228247         142.957
0.616                   -2.45776         176.754         -49.4572        -90.5633         -49.4573        -90.5639        -0.023076         142.877
0.617                   -2.46959         175.816          -49.381        -92.6936          -49.381        -92.6942       -0.0233313         142.796
0.618                   -2.48419         174.857         -49.3033        -94.8199         -49.3033        -94.8205       -0.0235906         142.715
0.619                   -2.50169         173.877         -49.2241        -96.9433         -49.2241        -96.9439        -0.023854         142.634
0.62                     -2.5222         172.877         -49.1434        -99.0647         -49.1434        -99.0653       -0.0241214         142.552
0.621                   -2.54583         171.857         -49.0613        -101.185         -49.0613        -101.186        -0.024393         142.471
0.622                   -2.57272         170.817         -48.9778        -103.306         -48.9779        -103.306       -0.0246688         142.389
0.623                   -2.60297         169.759          -48.893        -105.427         -48.8931        -105.427       -0.0249488         142.307
0.624                   -2.63672         168.681         -48.8069        -107.549         -48.8069         -107.55        -0.025233         142.224
0.625                   -2.67409         167.586         -48.7196        -109.675         -48.7196        -109.675       -0.0255214         142.142
0.626                   -2.71522         166.473         -48.6311        -111.803         -48.6311        -111.803       -0.0258142         142.059
0.627                   -2.76024         165.343         -48.5414        -113.935         -48.5415        -113.935       -0.0261113         141.976
0.628                   -2.80931         164.196         -48.4508        -116.071         -48.4509        -116.072       -0.0264127         141.892
0.629                   -2.86258         163.032         -48.3592        -118.213         -48.3593        -118.213       -0.0267186         141.809
0.63                     -2.9202         161.852         -48.2668         -120.36         -48.2668         -120.36       -0.0270289         141.725
0.631                   -2.98236         160.656         -48.1735        -122.513         -48.1735        -122.513       -0.0273438          141.64
0.632                   -3.04922         159.446         -48.0795        -124.673         -48.0796        -124.673       -0.0276631         141.556
0.633                   -3.12098         158.221          -47.985         -126.84          -47.985         -126.84       -0.0279871         141.471
0.634                   -3.19782         156.982         -47.8899        -129.014           -47.89        -129.015       -0.0283157         141.386
0.635                   -3.27997         155.729         -47.7944        -131.196         -47.7945        -131.197        -0.028649         141.301
0.636                   -3.36763         154.464         -47.6987        -133.387         -47.6987        -133.387       -0.0289871         141.215
0.637                   -3.46102         153.188         -47.6027        -135.586         -47.6027        -135.586       -0.0293301         141.129
0.638                   -3.56039           151.9         -47.5066        -137.793         -47.5066        -137.794       -0.0296779         141.043
0.639                   -3.66597         150.602         -47.4106         -140.01         -47.4106         -140.01       -0.0300307         140.956
0.64                    -3.77802         149.296         -47.3146        -142.235         -47.3147        -142.236       -0.0303885         140.869
0.641                   -3.89681         147.982          -47.219         -144.47          -47.219         -144.47       -0.0307515         140.782
0.642                   -4.02259         146.662         -47.1237        -146.714         -47.1237        -146.714       -0.0311196         140.695
0.643                   -4.15566         145.337         -47.0289        -148.967         -47.0289        -148.967        -0.031493         140.607
0.644                   -4.29631         144.009         -46.9346        -151.229         -46.9347        -151.229       -0.0318718         140.519
0.645                   -4.44482          142.68         -46.8412          -153.5         -46.8412        -153.501        -0.032256          140.43
0.646                   -4.60149         141.351         -46.7485        -155.781         -46.7486        -155.781       -0.0326458         140.342
0.647                   -4.76665         140.025         -46.6569         -158.07         -46.6569         -158.07       -0.0330413         140.252
0.648                   -4.94059         138.705         -46.5663        -160.367         -46.5663        -160.367       -0.0334425         140.163
0.649                   -5.12363         137.393         -46.4769        -162.672         -46.4769        -162.672       -0.0338496         140.073
0.65                    -5.31609         136.092         -46.3889        -164.985         -46.3889        -164.986       -0.0342626         139.983
0.651                   -5.51828         134.805         -46.3023        -167.306         -46.3023        -167.306       -0.0346818         139.892
0.652                   -5.73052         133.536         -46.2172        -169.633         -46.2172        -169.633       -0.0351071         139.801
0.653                   -5.95312         132.289         -46.1337        -171.966         -46.1337        -171.967       -0.0355388          139.71
0.654                   -6.18638         131.068          -46.052        -174.305          -46.052        -174.306        -0.035977         139.618
0.655                   -6.43058         129.878         -45.9722         -176.65         -45.9722         -176.65       -0.0364218         139.526
0.656                   -6.68601         128.723         -45.8942        -178.998         -45.8942        -178.998       -0.0368733         139.434
0.657                    -6.9529         127.611         -45.8183          178.65         -45.8183          178.65       -0.0373317         139.341
0.658                   -7.23148         126.545         -45.7444         176.295         -45.7444         176.295       -0.0377972         139.248
0.659                   -7.52194         125.535         -45.6727         173.939         -45.6727         173.938       -0.0382699         139.154
0.66                    -7.82441         124.586         -45.6032         171.581         -45.6032          171.58         -0.03875          139.06
0.661                   -8.13897         123.707         -45.5359         169.223         -45.5358         169.222       -0.0392376         138.966
0.662                   -8.46562         122.907         -45.4708         166.865         -45.4708         166.865        -0.039733         138.871
0.663                   -8.80425         122.195         -45.4081         164.509         -45.4081         164.509       -0.0402363         138.775
0.664                   -9.15464         121.582         -45.3477         162.156         -45.3476         162.156       -0.0407477          138.68
0.665                   -9.51642          121.08         -45.2895         159.806         -45.2895         159.806       -0.0412673         138.583
0.666                   -9.88901         120.701         -45.2337         157.461         -45.2337         157.461       -0.0417956         138.487
0.667                   -10.2716         120.458         -45.1802         155.121         -45.1802         155.121       -0.0423325          138.39
0.668                   -10.6631         120.366          -45.129         152.788          -45.129         152.788       -0.0428784         138.292
0.669                   -11.0619         120.439           -45.08         150.462         -45.0799         150.461       -0.0434335         138.194
0.67                    -11.4663         120.694         -45.0331         148.144         -45.0331         148.143        -0.043998         138.095
0.671                   -11.8738         121.146         -44.9884         145.835         -44.9884         145.835       -0.0445722         137.996
0.672                   -12.2813         121.809         -44.9457         143.536         -44.9457         143.536       -0.0451563         137.897
0.673                   -12.6851         122.697          -44.905         141.247          -44.905         141.247       -0.0457507         137.797
0.674                   -13.0808         123.822         -44.8662         138.971         -44.8662          138.97       -0.0463555         137.696
0.675                   -13.4633         125.189         -44.8292         136.706         -44.8292         136.706       -0.0469711         137.595
0.676                   -13.8267           126.8         -44.7939         134.454         -44.7939         134.454       -0.0475977         137.493
0.677                   -14.1647         128.648         -44.7602         132.216         -44.7602         132.216       -0.0482358         137.391
0.678                   -14.4707         130.717         -44.7279         129.992         -44.7279         129.992       -0.0488855         137.288
0.679                   -14.7384         132.979         -44.6971         127.783         -44.6971         127.783       -0.0495473         137.185
0.68                    -14.9622         135.397         -44.6674         125.589         -44.6674         125.589       -0.0502214         137.081
0.681                   -15.1377         137.923         -44.6389         123.411         -44.6389          123.41       -0.0509082         136.977
0.682                   -15.2621         140.505         -44.6114         121.248         -44.6114         121.248       -0.0516081         136.872
0.683                   -15.3348         143.083         -44.5847         119.101         -44.5847         119.101       -0.0523215         136.766
0.684                   -15.3571           145.6         -44.5588         116.972         -44.5588         116.971       -0.0530487          136.66
0.685                   -15.3323         148.006         -44.5334         114.858         -44.5334         114.858       -0.0537902         136.553
0.686                   -15.2653         150.257         -44.5085         112.762         -44.5085         112.761       -0.0545463         136.446
0.687                   -15.1618         152.319          -44.484         110.682         -44.4839         110.682       -0.0553175         136.337
0.688                   -15.0281         154.169         -44.4596         108.619         -44.4596         108.619       -0.0561042         136.229
0.689                   -14.8706         155.795         -44.4353         106.574         -44.4352         106.573       -0.0569069         136.119
0.69                     -14.695         157.192         -44.4109         104.545         -44.4108         104.544       -0.0577261         136.009
0.691                   -14.5069         158.364         -44.3862         102.532         -44.3862         102.532       -0.0585622         135.898
0.692                   -14.3109         159.318         -44.3613         100.537         -44.3613         100.536       -0.0594157         135.787
0.693                    -14.111         160.065         -44.3359         98.5573         -44.3359         98.5569       -0.0602872         135.675
0.694                   -13.9103         160.619           -44.31         96.5941           -44.31         96.5937       -0.0611771         135.562
0.695                   -13.7116         160.992         -44.2833         94.6467         -44.2833         94.6463        -0.062086         135.448
0.696                   -13.5169           161.2         -44.2559         92.7149         -44.2558         92.7144       -0.0630145         135.334