! TOUCHSTONE file generated by CST MICROWAVE STUDIO
! Date and time: Tue Nov 24 13:46:55 2020
! Project name: Scenario_1_Planar_Body_Tissue_Out_of_Line.cst
! Parameters = {dy1=346; L_HA=400; Ltissue=700; MT=2.54; Rad_Dielectric=30; Rad_Lower=7.3; Rad_Upper=30; Wtissue=700; a_HA=580; a_WG=246; b_HA=500; b_WG=121; c_HA=0; c_WG=187; d_feed=85; dx1=1039; h_feed=15; h_lower=18; h_upper=40; hfat=3; hgap=25; hmuscle=50; hskin=1.5}
! Header version: 2018
! Port assignment regex: !\s*Touchstone port\s*([0-9]+)\s*=\s*(CST MWS port|CST DS port)\s*([0-9]+|Zmin|Zmax)\s*\(\"(.*)\"\)(\s*mode\s*([0-9]+))?.*
! Touchstone port assignment:
! Touchstone port 1 = CST MWS port 1 ("")
! Touchstone port 2 = CST MWS port 2 ("")
# GHz S DB R 50
0.5                    -0.143822        -121.714         -66.1243        -34.9942         -66.1226        -34.9919      -0.00761671         151.159
0.501                  -0.146978        -122.147         -66.0302        -37.1253         -66.0288        -37.1212      -0.00768053         151.093
0.502                   -0.15025        -122.583         -65.9313         -39.262           -65.93        -39.2565      -0.00774497         151.028
0.503                  -0.153643        -123.023         -65.8275        -41.4037         -65.8264        -41.3971      -0.00781004         150.963
0.504                  -0.157166        -123.465         -65.7189        -43.5499         -65.7179        -43.5424      -0.00787574         150.897
0.505                  -0.160828         -123.91         -65.6055        -45.6999         -65.6047         -45.692       -0.0079421         150.832
0.506                  -0.164636        -124.358         -65.4875        -47.8535         -65.4867        -47.8453      -0.00800913         150.766
0.507                    -0.1686        -124.809         -65.3647        -50.0101          -65.364        -50.0018      -0.00807684         150.701
0.508                   -0.17273        -125.264         -65.2375        -52.1693         -65.2368        -52.1613      -0.00814524         150.635
0.509                  -0.177038        -125.722         -65.1057         -54.331         -65.1051        -54.3234      -0.00821436         150.569
0.51                   -0.181535        -126.183         -64.9696        -56.4949          -64.969        -56.4879       -0.0082842         150.503
0.511                  -0.186233        -126.648         -64.8292        -58.6608         -64.8285        -58.6547      -0.00835478         150.437
0.512                  -0.191146        -127.116         -64.6846        -60.8287         -64.6839        -60.8236      -0.00842613         150.371
0.513                  -0.196288        -127.588          -64.536        -62.9987         -64.5351        -62.9947      -0.00849825         150.305
0.514                  -0.201675        -128.064         -64.3833        -65.1708         -64.3824         -65.168      -0.00857117         150.239
0.515                  -0.207323        -128.543         -64.2268        -67.3451         -64.2257        -67.3438      -0.00864491         150.173
0.516                  -0.213251        -129.025         -64.0666         -69.522         -64.0653        -69.5221      -0.00871949         150.106
0.517                  -0.219476        -129.512         -63.9027        -71.7017         -63.9012        -71.7034      -0.00879493          150.04
0.518                  -0.226021        -130.002         -63.7353        -73.8847         -63.7336        -73.8879      -0.00887126         149.973
0.519                  -0.232907        -130.496         -63.5645        -76.0714         -63.5626        -76.0763      -0.00894851         149.907
0.52                   -0.240157        -130.994         -63.3904        -78.2623         -63.3882        -78.2689      -0.00902669          149.84
0.521                  -0.247797        -131.496         -63.2132        -80.4581         -63.2108        -80.4664      -0.00910583         149.773
0.522                  -0.255854        -132.002          -63.033        -82.6594         -63.0303        -82.6695      -0.00918597         149.706
0.523                  -0.264357        -132.513         -62.8499        -84.8671         -62.8469        -84.8788      -0.00926714         149.639
0.524                  -0.273337        -133.027          -62.664        -87.0819         -62.6607        -87.0953      -0.00934936         149.572
0.525                  -0.282827        -133.545         -62.4756        -89.3047          -62.472        -89.3199      -0.00943268         149.505
0.526                  -0.292863        -134.067         -62.2846        -91.5366         -62.2807        -91.5533      -0.00951713         149.438
0.527                  -0.303481        -134.593         -62.0914        -93.7784         -62.0872        -93.7967      -0.00960273          149.37
0.528                  -0.314722        -135.123         -61.8959        -96.0313         -61.8914         -96.051      -0.00968954         149.303
0.529                  -0.326627        -135.657         -61.6984        -98.2963         -61.6936        -98.3175      -0.00977759         149.235
0.53                   -0.339241        -136.195         -61.4991        -100.575          -61.494        -100.597      -0.00986692         149.168
0.531                  -0.352609        -136.737         -61.2981        -102.868         -61.2927        -102.891      -0.00995757           149.1
0.532                  -0.366779        -137.282         -61.0955        -105.176         -61.0899        -105.201       -0.0100496         149.032
0.533                  -0.381802        -137.831         -60.8916        -107.502         -60.8857        -107.528        -0.010143         148.964
0.534                  -0.397729        -138.383         -60.6865        -109.847         -60.6804        -109.873       -0.0102378         148.896
0.535                  -0.414611        -138.938         -60.4805        -112.211         -60.4742        -112.238       -0.0103341         148.828
0.536                    -0.4325        -139.495         -60.2737        -114.596         -60.2672        -114.624        -0.010432          148.76
0.537                  -0.451449        -140.055         -60.0664        -117.003         -60.0598        -117.032       -0.0105313         148.692
0.538                  -0.471508        -140.617         -59.8588        -119.435         -59.8521        -119.464       -0.0106323         148.623
0.539                  -0.492723         -141.18         -59.6513        -121.891         -59.6445         -121.92       -0.0107348         148.555
0.54                   -0.515137        -141.744         -59.4439        -124.374         -59.4371        -124.403       -0.0108389         148.486
0.541                  -0.538788        -142.308         -59.2371        -126.884         -59.2302        -126.913       -0.0109446         148.417
0.542                  -0.563705        -142.871         -59.0311        -129.424         -59.0243        -129.453       -0.0110519         148.348
0.543                  -0.589906        -143.433         -58.8262        -131.993         -58.8195        -132.021       -0.0111609         148.279
0.544                  -0.617397        -143.993         -58.6228        -134.593         -58.6162        -134.621       -0.0112713          148.21
0.545                  -0.646167         -144.55         -58.4212        -137.226         -58.4149        -137.252       -0.0113834         148.141
0.546                  -0.676188        -145.103         -58.2218         -139.89         -58.2157        -139.916       -0.0114969         148.072
0.547                  -0.707408        -145.651          -58.025        -142.588         -58.0191        -142.613       -0.0116119         148.003
0.548                  -0.739754        -146.193         -57.8311         -145.32         -57.8256        -145.343       -0.0117282         147.933
0.549                  -0.773122        -146.728         -57.6405        -148.086         -57.6354        -148.107       -0.0118459         147.864
0.55                   -0.807381        -147.254         -57.4538        -150.885         -57.4491        -150.904       -0.0119648         147.794
0.551                  -0.842369        -147.772         -57.2712        -153.718         -57.2669        -153.736       -0.0120849         147.724
0.552                  -0.877894        -148.279         -57.0931        -156.584         -57.0894          -156.6       -0.0122061         147.654
0.553                  -0.913734        -148.777         -56.9201        -159.483          -56.917        -159.496       -0.0123283         147.584
0.554                  -0.949643        -149.263         -56.7525        -162.412         -56.7499        -162.423       -0.0124515         147.514
0.555                  -0.985351        -149.738         -56.5907        -165.372         -56.5887        -165.379       -0.0125756         147.444
0.556                   -1.02057        -150.202          -56.435        -168.359         -56.4336        -168.364       -0.0127006         147.374
0.557                   -1.05502        -150.656         -56.2858        -171.372          -56.285        -171.375       -0.0128263         147.303
0.558                    -1.0884        -151.099         -56.1433        -174.409         -56.1431        -174.409       -0.0129529         147.233
0.559                   -1.12044        -151.533         -56.0079        -177.467         -56.0083        -177.464       -0.0130802         147.162
0.56                    -1.15088         -151.96         -55.8796         179.457         -55.8807         179.463       -0.0132083         147.091
0.561                    -1.1795        -152.381         -55.7588         176.367         -55.7603         176.374       -0.0133371          147.02
0.562                   -1.20613        -152.798         -55.6454         173.264         -55.6474         173.274       -0.0134668         146.949
0.563                   -1.23062        -153.213         -55.5394         170.154          -55.542         170.165       -0.0135972         146.878
0.564                    -1.2529        -153.629         -55.4409         167.039         -55.4439         167.052       -0.0137285         146.806
0.565                   -1.27294        -154.047         -55.3497         163.923          -55.353         163.937       -0.0138608         146.735
0.566                   -1.29077        -154.469         -55.2656          160.81         -55.2692         160.825        -0.013994         146.663
0.567                   -1.30647        -154.899         -55.1884         157.703         -55.1921         157.719       -0.0141282         146.592
0.568                   -1.32015        -155.337         -55.1177         154.607         -55.1215         154.623       -0.0142635          146.52
0.569                   -1.33198        -155.787         -55.0532         151.524          -55.057         151.539          -0.0144         146.448
0.57                    -1.34215        -156.248         -54.9944         148.458         -54.9981         148.472       -0.0145377         146.376
0.571                   -1.35088        -156.724         -54.9409         145.411         -54.9444         145.425       -0.0146766         146.303
0.572                   -1.35838        -157.214         -54.8921         142.388         -54.8953           142.4        -0.014817         146.231
0.573                   -1.36491         -157.72         -54.8475          139.39         -54.8502           139.4       -0.0149587         146.158
0.574                    -1.3707        -158.242         -54.8065         136.419         -54.8087         136.427        -0.015102         146.086
0.575                   -1.37599        -158.781         -54.7685         133.479           -54.77         133.485       -0.0152468         146.013
0.576                   -1.38101        -159.337         -54.7329         130.571         -54.7336         130.574       -0.0153932          145.94
0.577                   -1.38597         -159.91         -54.6991         127.695          -54.699         127.696       -0.0155413         145.867
0.578                   -1.39108        -160.501         -54.6665         124.855         -54.6655         124.853       -0.0156911         145.793
0.579                   -1.39655        -161.108         -54.6346          122.05         -54.6325         122.046       -0.0158427          145.72
0.58                    -1.40254        -161.732         -54.6027         119.282         -54.5996         119.276       -0.0159962         145.646
0.581                   -1.40922        -162.373         -54.5705         116.551         -54.5663         116.544       -0.0161516         145.572
0.582                   -1.41676         -163.03         -54.5373         113.858         -54.5321         113.849       -0.0163089         145.498
0.583                   -1.42529        -163.703         -54.5028         111.202         -54.4965         111.192       -0.0164682         145.424
0.584                   -1.43494        -164.391         -54.4666         108.583         -54.4592         108.573       -0.0166296          145.35
0.585                   -1.44584        -165.094         -54.4282         106.001         -54.4199         105.991       -0.0167931         145.276
0.586                   -1.45811        -165.812         -54.3874         103.456         -54.3782         103.445       -0.0169587         145.201
0.587                   -1.47185        -166.545         -54.3439         100.945         -54.3339         100.935       -0.0171266         145.126
0.588                   -1.48716        -167.291         -54.2975         98.4686         -54.2867         98.4597       -0.0172966         145.051
0.589                   -1.50416         -168.05         -54.2479         96.0247         -54.2365          96.017        -0.017469         144.976
0.59                    -1.52293        -168.823          -54.195         93.6118         -54.1831         93.6055       -0.0176437         144.901
0.591                   -1.54358        -169.609         -54.1386         91.2281         -54.1264         91.2233       -0.0178207         144.826
0.592                   -1.56619        -170.407         -54.0787         88.8716         -54.0663         88.8683       -0.0180001          144.75
0.593                   -1.59087        -171.217         -54.0152         86.5402         -54.0026         86.5384        -0.018182         144.674
0.594                   -1.61771        -172.039          -53.948         84.2313         -53.9355         84.2311       -0.0183664         144.598
0.595                   -1.64681        -172.872         -53.8772         81.9427         -53.8647         81.9439       -0.0185533         144.522
0.596                   -1.67827        -173.716         -53.8026         79.6718         -53.7905         79.6742       -0.0187427         144.446
0.597                   -1.71221         -174.57         -53.7244         77.4158         -53.7126         77.4192       -0.0189348         144.369
0.598                   -1.74872        -175.435         -53.6426          75.172         -53.6312         75.1763       -0.0191295         144.292
0.599                   -1.78792        -176.309         -53.5572         72.9376         -53.5463         72.9426       -0.0193269         144.216
0.6                     -1.82992        -177.192         -53.4683         70.7099          -53.458         70.7154        -0.019527         144.139
0.601                   -1.87485        -178.084         -53.3761         68.4861         -53.3663         68.4918       -0.0197299         144.061
0.602                   -1.92282        -178.984         -53.2805         66.2633         -53.2714          66.269       -0.0199355         143.984
0.603                   -1.97397         -179.89         -53.1817         64.0389         -53.1733         64.0445        -0.020144         143.906
0.604                   -2.02842         179.196           -53.08         61.8103         -53.0723         61.8156       -0.0203554         143.828
0.605                   -2.08631         178.277         -52.9753         59.5747         -52.9684         59.5797       -0.0205697          143.75
0.606                   -2.14776         177.353          -52.868         57.3299         -52.8618         57.3344       -0.0207869         143.672
0.607                   -2.21292         176.426         -52.7583         55.0735         -52.7527         55.0774       -0.0210071         143.594
0.608                   -2.28192         175.496         -52.6462         52.8032         -52.6414         52.8066       -0.0212304         143.515
0.609                   -2.35488         174.564         -52.5322         50.5172         -52.5281         50.5199       -0.0214566         143.436
0.61                    -2.43195         173.633         -52.4164         48.2134         -52.4129         48.2156        -0.021686         143.357
0.611                   -2.51324         172.703         -52.2991         45.8904         -52.2962          45.892       -0.0219185         143.278
0.612                   -2.59886         171.776         -52.1806         43.5466         -52.1783         43.5478       -0.0221542         143.198
0.613                   -2.68892         170.855         -52.0612         41.1808         -52.0595         41.1816       -0.0223931         143.118
0.614                   -2.78351          169.94         -51.9413         38.7921           -51.94         38.7926       -0.0226352         143.038
0.615                   -2.88269         169.035          -51.821         36.3797         -51.8202         36.3799       -0.0228807         142.958
0.616                   -2.98651         168.142         -51.7009         33.9431         -51.7005         33.9432       -0.0231294         142.878
0.617                   -3.09499         167.263         -51.5811         31.4822         -51.5811         31.4823       -0.0233815         142.797
0.618                    -3.2081           166.4         -51.4621          28.997         -51.4624          28.997        -0.023637         142.716
0.619                   -3.32581         165.558         -51.3442         26.4877         -51.3447         26.4879       -0.0238959         142.635
0.62                    -3.44801         164.738         -51.2277         23.9551         -51.2284         23.9554       -0.0241584         142.554
0.621                   -3.57455         163.944         -51.1129         21.3999         -51.1138         21.4004       -0.0244243         142.472
0.622                   -3.70522         163.178         -51.0001         18.8232         -51.0012          18.824       -0.0246938          142.39
0.623                   -3.83975         162.446         -50.8896         16.2264         -50.8908         16.2274        -0.024967         142.308
0.624                   -3.97781         161.748         -50.7816         13.6111         -50.7829         13.6123       -0.0252438         142.226
0.625                   -4.11897          161.09         -50.6765         10.9789         -50.6778         10.9804       -0.0255244         142.143
0.626                   -4.26276         160.473         -50.5743         8.33173         -50.5756         8.33349       -0.0258087          142.06
0.627                   -4.40859           159.9         -50.4753         5.67177         -50.4766         5.67376       -0.0260968         141.977
0.628                   -4.55581         159.375         -50.3796         3.00116         -50.3808         3.00333       -0.0263888         141.894
0.629                   -4.70369         158.898         -50.2872        0.322173         -50.2884         0.32449       -0.0266848          141.81
0.63                    -4.85141         158.472         -50.1983        -2.36287         -50.1994        -2.36046       -0.0269848         141.726
0.631                    -4.9981         158.098         -50.1129        -5.05162         -50.1138        -5.04917       -0.0272889         141.642
0.632                   -5.14283         157.775         -50.0308        -7.74176         -50.0317        -7.73932       -0.0275972         141.558
0.633                   -5.28463         157.504         -49.9522         -10.431         -49.9529        -10.4286       -0.0279097         141.473
0.634                   -5.42251         157.281         -49.8769        -13.1172         -49.8775        -13.1149       -0.0282265         141.388
0.635                   -5.55547         157.106         -49.8047        -15.7981         -49.8052         -15.796       -0.0285477         141.303
0.636                   -5.68257         156.974         -49.7355        -18.4719         -49.7359          -18.47       -0.0288735         141.217
0.637                   -5.80291          156.88         -49.6692        -21.1366         -49.6695         -21.135       -0.0292038         141.131
0.638                   -5.91567          156.82         -49.6056        -23.7907         -49.6058        -23.7893       -0.0295389         141.045
0.639                   -6.02015         156.787         -49.5444        -26.4326         -49.5445        -26.4315       -0.0298787         140.958
0.64                    -6.11579         156.773         -49.4854        -29.0611         -49.4854        -29.0602       -0.0302235         140.871
0.641                   -6.20218         156.771         -49.4283        -31.6749         -49.4283        -31.6744       -0.0305733         140.784
0.642                   -6.27908         156.774          -49.373        -34.2732         -49.3729         -34.273       -0.0309283         140.697
0.643                   -6.34644         156.772         -49.3191        -36.8552         -49.3189        -36.8553       -0.0312886         140.609
0.644                   -6.40437         156.758         -49.2664        -39.4204         -49.2662        -39.4207       -0.0316544         140.521
0.645                   -6.45316         156.724         -49.2146        -41.9684         -49.2143         -41.969       -0.0320257         140.432
0.646                   -6.49326         156.662         -49.1635         -44.499         -49.1632        -44.4998       -0.0324027         140.343
0.647                   -6.52524         156.565         -49.1128        -47.0121         -49.1125        -47.0131       -0.0327857         140.254
0.648                   -6.54982         156.428         -49.0624        -49.5078         -49.0621         -49.509       -0.0331746         140.165
0.649                   -6.56778         156.245         -49.0119        -51.9864         -49.0115        -51.9877       -0.0335697         140.075
0.65                    -6.57997         156.011         -48.9611        -54.4482         -48.9608        -54.4496       -0.0339712         139.984
0.651                   -6.58732         155.723         -48.9099        -56.8938         -48.9096        -56.8952       -0.0343793         139.894
0.652                   -6.59074         155.378          -48.858        -59.3236         -48.8577        -59.3251        -0.034794         139.803
0.653                   -6.59115         154.974         -48.8053        -61.7385          -48.805          -61.74       -0.0352156         139.711
0.654                   -6.58949         154.508         -48.7516         -64.139         -48.7513        -64.1405       -0.0356443          139.62
0.655                   -6.58663         153.982         -48.6967        -66.5262         -48.6965        -66.5276       -0.0360802         139.527
0.656                   -6.58343         153.393         -48.6406        -68.9008         -48.6403        -68.9022       -0.0365236         139.435
0.657                   -6.58072         152.743          -48.583        -71.2639         -48.5828        -71.2651       -0.0369747         139.342
0.658                   -6.57925         152.032          -48.524        -73.6163         -48.5238        -73.6174       -0.0374336         139.249
0.659                   -6.57976         151.262         -48.4633        -75.9592         -48.4632        -75.9601       -0.0379005         139.155
0.66                    -6.58292         150.432          -48.401        -78.2935         -48.4009        -78.2943       -0.0383757         139.061
0.661                   -6.58937         149.544         -48.3369        -80.6204         -48.3368         -80.621       -0.0388594         138.966
0.662                   -6.59972         148.601         -48.2711        -82.9409         -48.2709        -82.9414       -0.0393518         138.871
0.663                   -6.61453         147.603         -48.2034        -85.2562         -48.2033        -85.2565       -0.0398531         138.776
0.664                   -6.63432         146.552         -48.1338        -87.5673         -48.1337        -87.5674       -0.0403635          138.68
0.665                   -6.65962         145.449         -48.0624        -89.8754         -48.0623        -89.8753       -0.0408833         138.584
0.666                   -6.69091         144.297         -47.9891        -92.1816         -47.9891        -92.1813       -0.0414127         138.487
0.667                   -6.72866         143.097          -47.914        -94.4869          -47.914        -94.4864       -0.0419519          138.39
0.668                   -6.77334         141.849         -47.8371        -96.7924         -47.8371        -96.7918       -0.0425012         138.292
0.669                   -6.82541         140.557         -47.7584        -99.0992         -47.7584        -99.0984       -0.0430609         138.194
0.67                    -6.88532         139.221          -47.678        -101.408          -47.678        -101.407       -0.0436311         138.095
0.671                   -6.95355         137.843          -47.596        -103.721         -47.5959         -103.72       -0.0442122         137.996
0.672                   -7.03057         136.424         -47.5123        -106.037         -47.5123        -106.036       -0.0448043         137.896
0.673                   -7.11687         134.966         -47.4272        -108.359         -47.4271        -108.358       -0.0454078         137.796
0.674                   -7.21295          133.47         -47.3406        -110.687         -47.3406        -110.686        -0.046023         137.695
0.675                   -7.31936         131.938         -47.2528        -113.022         -47.2528        -113.021         -0.04665         137.594
0.676                   -7.43665         130.371         -47.1638        -115.365         -47.1638        -115.364       -0.0472893         137.492
0.677                   -7.56541         128.771         -47.0738        -117.717         -47.0738        -117.715        -0.047941          137.39
0.678                   -7.70628          127.14         -46.9829        -120.077         -46.9829        -120.075       -0.0486055         137.287
0.679                   -7.85993         125.479         -46.8912        -122.447         -46.8912        -122.446       -0.0492831         137.184
0.68                    -8.02709          123.79          -46.799        -124.827         -46.7989        -124.826       -0.0499741          137.08
0.681                   -8.20854         122.076         -46.7063        -127.218         -46.7062        -127.217       -0.0506788         136.975
0.682                   -8.40511         120.339         -46.6133        -129.621         -46.6133        -129.619       -0.0513975          136.87
0.683                   -8.61773         118.581         -46.5203        -132.034         -46.5202        -132.033       -0.0521305         136.765
0.684                   -8.84738         116.804         -46.4273        -134.459         -46.4273        -134.458       -0.0528783         136.658
0.685                   -9.09515         115.014         -46.3347        -136.895         -46.3346        -136.894        -0.053641         136.551
0.686                   -9.36222         113.212         -46.2425        -139.343         -46.2424        -139.342       -0.0544192         136.444
0.687                   -9.64991         111.403          -46.151        -141.801         -46.1509        -141.801       -0.0552131         136.336
0.688                   -9.95963         109.592         -46.0603        -144.271         -46.0603         -144.27       -0.0560231         136.227
0.689                    -10.293         107.784         -45.9707        -146.751         -45.9706        -146.751       -0.0568495         136.118
0.69                    -10.6518         105.986         -45.8823        -149.241         -45.8822        -149.241       -0.0576928         136.008
0.691                   -11.0381         104.205         -45.7952         -151.74         -45.7952         -151.74       -0.0585534         135.897
0.692                    -11.454          102.45         -45.7097        -154.248         -45.7097        -154.248       -0.0594316         135.785
0.693                   -11.9022         100.732          -45.626        -156.763         -45.6259        -156.763       -0.0603279         135.673
0.694                   -12.3857         99.0625          -45.544        -159.285          -45.544        -159.285       -0.0612427          135.56
0.695                   -12.9077         97.4585         -45.4641        -161.812         -45.4641        -161.812       -0.0621764         135.447
0.696                   -13.4723         95.9392         -45.3862        -164.343         -45.3862        -164.343       -0.0631294         135.332