! TOUCHSTONE file generated by CST MICROWAVE STUDIO
! Date and time: Sat Nov 14 20:37:33 2020
! Project name: Scenario_1_Planar_Body_Tissue_Out_of_Line_v2.cst
! Parameters = {dy1=17.3; L_HA=400; Ltissue=700; MT=2.54; Rad_Dielectric=30; Rad_Lower=7.3; Rad_Upper=30; Wtissue=700; a_HA=580; a_WG=246; b_HA=500; b_WG=121; c_HA=0; c_WG=187; d_feed=85; dx1=173; h_feed=15; h_lower=18; h_upper=40; hfat=3; hgap=25; hmuscle=50; hskin=1.5}
! Header version: 2018
! Port assignment regex: !\s*Touchstone port\s*([0-9]+)\s*=\s*(CST MWS port|CST DS port)\s*([0-9]+|Zmin|Zmax)\s*\(\"(.*)\"\)(\s*mode\s*([0-9]+))?.*
! Touchstone port assignment:
! Touchstone port 1 = CST MWS port 1 ("")
! Touchstone port 2 = CST MWS port 2 ("")
# GHz S DB R 50
0.5                   -0.0434253        -121.748         -56.8816         131.874         -56.8825         131.873      -0.00718668         151.154
0.501                  -0.044693        -122.202         -56.7149         131.289         -56.7157         131.288      -0.00724325         151.089
0.502                 -0.0460288        -122.659         -56.5459           130.7         -56.5467         130.699      -0.00729983         151.024
0.503                 -0.0474361        -123.119         -56.3746         130.107         -56.3754         130.107      -0.00735643         150.959
0.504                 -0.0489182        -123.583         -56.2009         129.511         -56.2017          129.51      -0.00741306         150.893
0.505                 -0.0504792        -124.051         -56.0248          128.91         -56.0256         128.909      -0.00746973         150.828
0.506                 -0.0521231        -124.522         -55.8463         128.305         -55.8471         128.305      -0.00752646         150.762
0.507                 -0.0538544        -124.996         -55.6653         127.696          -55.666         127.695      -0.00758324         150.697
0.508                 -0.0556779        -125.475         -55.4817         127.082         -55.4824         127.082      -0.00764008         150.631
0.509                 -0.0575989        -125.957         -55.2955         126.464         -55.2963         126.463      -0.00769701         150.565
0.51                  -0.0596232        -126.444         -55.1067         125.841         -55.1074          125.84      -0.00775402         150.499
0.511                 -0.0617567        -126.934         -54.9152         125.213         -54.9159         125.212      -0.00781113         150.433
0.512                 -0.0640064        -127.429          -54.721         124.579         -54.7216         124.579      -0.00786834         150.367
0.513                 -0.0663794        -127.929         -54.5239          123.94         -54.5246          123.94      -0.00792568         150.301
0.514                 -0.0688836        -128.433          -54.324         123.296         -54.3246         123.295      -0.00798314         150.235
0.515                 -0.0715277        -128.941         -54.1211         122.645         -54.1217         122.645      -0.00804075         150.168
0.516                  -0.074321        -129.455         -53.9152         121.988         -53.9159         121.988      -0.00809851         150.102
0.517                 -0.0772738        -129.974         -53.7063         121.325         -53.7069         121.324      -0.00815644         150.035
0.518                 -0.0803973        -130.498         -53.4943         120.655         -53.4949         120.654      -0.00821455         149.969
0.519                 -0.0837036        -131.027          -53.279         119.977         -53.2796         119.977      -0.00827285         149.902
0.52                  -0.0872062        -131.562         -53.0605         119.293         -53.0611         119.292      -0.00833137         149.835
0.521                 -0.0909196        -132.103         -52.8387           118.6         -52.8392         118.599      -0.00839012         149.769
0.522                   -0.09486         -132.65         -52.6134         117.899         -52.6139         117.898      -0.00844912         149.702
0.523                 -0.0990449        -133.203         -52.3846         117.189         -52.3851         117.189      -0.00850838         149.634
0.524                  -0.103494        -133.762         -52.1522          116.47         -52.1527          116.47      -0.00856794         149.567
0.525                  -0.108228        -134.329         -51.9161         115.741         -51.9166         115.741      -0.00862782           149.5
0.526                  -0.113271        -134.902         -51.6762         115.002         -51.6767         115.002      -0.00868804         149.433
0.527                  -0.118649        -135.483         -51.4324         114.252         -51.4329         114.252      -0.00874864         149.365
0.528                   -0.12439        -136.072         -51.1847         113.491         -51.1852          113.49      -0.00880965         149.298
0.529                  -0.130528        -136.669         -50.9328         112.717         -50.9333         112.716      -0.00887111          149.23
0.53                   -0.137096        -137.274         -50.6768          111.93         -50.6773          111.93      -0.00893306         149.162
0.531                  -0.144134        -137.888         -50.4164         111.129         -50.4169         111.129      -0.00899555         149.094
0.532                  -0.151686        -138.511         -50.1516         110.314         -50.1521         110.314      -0.00905865         149.026
0.533                  -0.159802        -139.143         -49.8822         109.483         -49.8827         109.483      -0.00912241         148.958
0.534                  -0.168534        -139.786         -49.6081         108.635         -49.6086         108.635       -0.0091869          148.89
0.535                  -0.177946         -140.44         -49.3292          107.77         -49.3296         107.769      -0.00925222         148.821
0.536                  -0.188104        -141.105         -49.0453         106.885         -49.0457         106.885      -0.00931845         148.753
0.537                  -0.199088        -141.781         -48.7563          105.98         -48.7567          105.98      -0.00938571         148.684
0.538                  -0.210982         -142.47          -48.462         105.053         -48.4623         105.053      -0.00945413         148.615
0.539                  -0.223885        -143.172         -48.1622         104.103         -48.1626         104.103      -0.00952385         148.547
0.54                   -0.237909        -143.888         -47.8568         103.127         -47.8572         103.127      -0.00959505         148.478
0.541                  -0.253179        -144.618         -47.5457         102.125          -47.546         102.125      -0.00966792         148.408
0.542                  -0.269839        -145.364         -47.2286         101.093         -47.2289         101.093       -0.0097427         148.339
0.543                  -0.288051        -146.126         -46.9054          100.03         -46.9057          100.03      -0.00981967          148.27
0.544                  -0.308001        -146.905         -46.5759         98.9323         -46.5762         98.9323      -0.00989912           148.2
0.545                  -0.329904        -147.702         -46.2399         97.7981         -46.2402         97.7982      -0.00998143         148.131
0.546                  -0.354004        -148.519         -45.8972          96.624         -45.8975         96.6242        -0.010067         148.061
0.547                  -0.380582        -149.356         -45.5477         95.4067          -45.548         95.4069       -0.0101564         147.991
0.548                  -0.409965        -150.215         -45.1912         94.1424         -45.1915         94.1425       -0.0102502         147.921
0.549                  -0.442527        -151.097         -44.8275         92.8269         -44.8278          92.827        -0.010349          147.85
0.55                   -0.478706        -152.003         -44.4565         91.4556         -44.4567         91.4558       -0.0104537          147.78
0.551                  -0.519009        -152.934          -44.078         90.0235         -44.0783         90.0237       -0.0105652         147.709
0.552                  -0.564025        -153.892          -43.692          88.525         -43.6922         88.5252       -0.0106846         147.638
0.553                  -0.614446        -154.878         -43.2984         86.9537         -43.2986          86.954       -0.0108131         147.567
0.554                  -0.671077        -155.893         -42.8972         85.3029         -42.8974         85.3032       -0.0109523         147.496
0.555                  -0.734863        -156.938         -42.4885         83.5649         -42.4887         83.5653       -0.0111038         147.425
0.556                  -0.806912        -158.013         -42.0725         81.7313         -42.0726         81.7317       -0.0112695         147.353
0.557                  -0.888522        -159.119         -41.6493         79.7928         -41.6495         79.7932       -0.0114517         147.282
0.558                  -0.981214        -160.254         -41.2195         77.7393         -41.2197         77.7397       -0.0116529          147.21
0.559                   -1.08677        -161.417         -40.7837         75.5598         -40.7839         75.5602       -0.0118758         147.138
0.56                    -1.20726        -162.605         -40.3427         73.2423         -40.3429         73.2427       -0.0121234         147.066
0.561                   -1.34508        -163.811         -39.8977         70.7742         -39.8978         70.7746       -0.0123987         146.993
0.562                   -1.50299        -165.025         -39.4501         68.1422         -39.4502         68.1426        -0.012705         146.921
0.563                   -1.68408        -166.236         -39.0019         65.3326          -39.002          65.333       -0.0130452         146.848
0.564                   -1.89176        -167.423         -38.5555         62.3319         -38.5556         62.3323       -0.0134218         146.776
0.565                   -2.12967        -168.559         -38.1139         59.1275          -38.114         59.1278       -0.0138366         146.703
0.566                    -2.4014        -169.606         -37.6808         55.7081         -37.6808         55.7084         -0.01429          146.63
0.567                   -2.71011        -170.512         -37.2602         52.0655         -37.2603         52.0658       -0.0147807         146.558
0.568                   -3.05781        -171.211         -36.8574         48.1958         -36.8574          48.196       -0.0153051         146.485
0.569                   -3.44429        -171.617         -36.4776         44.1008         -36.4776         44.1009       -0.0158573         146.413
0.57                    -3.86546        -171.628         -36.1268         39.7897         -36.1268         39.7898       -0.0164284         146.341
0.571                   -4.31125        -171.126          -35.811         35.2807          -35.811         35.2807       -0.0170071         146.269
0.572                   -4.76333        -170.001         -35.5358         30.6017         -35.5358         30.6017       -0.0175804         146.198
0.573                   -5.19356        -168.169         -35.3062         25.7902         -35.3062         25.7901       -0.0181346         146.126
0.574                   -5.56499        -165.623          -35.126         20.8919          -35.126         20.8917       -0.0186567         146.056
0.575                   -5.83756        -162.466         -34.9971         15.9586         -34.9971         15.9583       -0.0191355         145.985
0.576                   -5.97859         -158.93         -34.9199         11.0442         -34.9199         11.0438       -0.0195627         145.914
0.577                   -5.97421        -155.335         -34.8927         6.20135         -34.8927         6.20098       -0.0199337         145.843
0.578                   -5.83437        -152.006         -34.9122         1.47769         -34.9122         1.47729       -0.0202473         145.773
0.579                   -5.58798        -149.185         -34.9736        -3.08705         -34.9737        -3.08746       -0.0205058         145.702
0.58                    -5.27192        -146.991         -35.0715        -7.46249         -35.0715        -7.46291       -0.0207136         145.631
0.581                   -4.92082        -145.436         -35.1998        -11.6281         -35.1999        -11.6285       -0.0208769         145.559
0.582                   -4.56158        -144.462         -35.3527        -15.5724         -35.3527        -15.5728       -0.0210025         145.488
0.583                   -4.21235        -143.978         -35.5244        -19.2918         -35.5245        -19.2922       -0.0210977         145.416
0.584                   -3.88385        -143.889           -35.71        -22.7891           -35.71        -22.7894       -0.0211691         145.344
0.585                   -3.58138        -144.108         -35.9048        -26.0716         -35.9049        -26.0719       -0.0212228         145.271
0.586                   -3.30673        -144.562         -36.1053        -29.1499         -36.1053        -29.1502       -0.0212641         145.198
0.587                   -3.05953        -145.192         -36.3081        -32.0364         -36.3081        -32.0367       -0.0212976         145.125
0.588                   -2.83823        -145.951         -36.5107        -34.7447         -36.5108        -34.7449       -0.0213269         145.051
0.589                   -2.64074        -146.805         -36.7111        -37.2884         -36.7111        -37.2886        -0.021355         144.977
0.59                    -2.46473        -147.727         -36.9076        -39.6811         -36.9077        -39.6812       -0.0213843         144.903
0.591                   -2.30794        -148.697         -37.0991        -41.9357         -37.0991        -41.9358       -0.0214164         144.828
0.592                    -2.1682        -149.701         -37.2845        -44.0644         -37.2846        -44.0645       -0.0214529         144.753
0.593                   -2.04355        -150.727         -37.4632        -46.0787         -37.4633        -46.0788       -0.0214947         144.678
0.594                   -1.93223        -151.768         -37.6348        -47.9891         -37.6348        -47.9891       -0.0215425         144.603
0.595                   -1.83268        -152.817         -37.7988         -49.805         -37.7989        -49.8051       -0.0215968         144.527
0.596                   -1.74354        -153.872         -37.9551        -51.5354         -37.9552        -51.5354       -0.0216581         144.452
0.597                    -1.6636        -154.928         -38.1037        -53.1882         -38.1037        -53.1882       -0.0217264         144.375
0.598                   -1.59183        -155.984         -38.2444        -54.7706         -38.2444        -54.7706        -0.021802         144.299
0.599                   -1.52731        -157.039         -38.3773        -56.2892         -38.3773        -56.2892       -0.0218848         144.222
0.6                     -1.46926        -158.092         -38.5025        -57.7499         -38.5025        -57.7499       -0.0219748         144.146
0.601                   -1.41699        -159.143         -38.6201        -59.1583         -38.6201        -59.1583       -0.0220719         144.069
0.602                    -1.3699        -160.192         -38.7302         -60.519         -38.7303         -60.519       -0.0221761         143.991
0.603                   -1.32748        -161.238         -38.8331        -61.8367         -38.8331        -61.8367       -0.0222873         143.914
0.604                   -1.28926        -162.282         -38.9288        -63.1154         -38.9288        -63.1154       -0.0224053         143.836
0.605                   -1.25486        -163.325         -39.0175        -64.3588         -39.0176        -64.3588         -0.02253         143.758
0.606                   -1.22392        -164.367         -39.0996        -65.5703         -39.0996        -65.5703       -0.0226614          143.68
0.607                   -1.19614        -165.408          -39.175        -66.7529          -39.175        -66.7529       -0.0227993         143.602
0.608                   -1.17125         -166.45         -39.2441        -67.9095         -39.2441        -67.9096       -0.0229436         143.523
0.609                   -1.14902        -167.492          -39.307        -69.0428          -39.307        -69.0428       -0.0230943         143.444
0.61                    -1.12925        -168.536         -39.3638        -70.1551         -39.3639        -70.1551       -0.0232511         143.365
0.611                   -1.11174        -169.581         -39.4149        -71.2486          -39.415        -71.2486        -0.023414         143.286
0.612                   -1.09635        -170.629         -39.4604        -72.3253         -39.4605        -72.3254        -0.023583         143.206
0.613                   -1.08294         -171.68         -39.5005        -73.3872         -39.5005        -73.3873        -0.023758         143.127
0.614                   -1.07137        -172.735         -39.5353        -74.4359         -39.5354         -74.436        -0.023939         143.047
0.615                   -1.06155        -173.794         -39.5651         -75.473         -39.5652        -75.4731       -0.0241257         142.966
0.616                   -1.05338        -174.858         -39.5901           -76.5         -39.5901           -76.5       -0.0243183         142.886
0.617                   -1.04677        -175.928         -39.6104         -77.518         -39.6104        -77.5181       -0.0245167         142.805
0.618                   -1.04166        -177.004         -39.6262        -78.5284         -39.6263        -78.5285       -0.0247209         142.724
0.619                   -1.03799        -178.087         -39.6378        -79.5321         -39.6378        -79.5322       -0.0249308         142.643
0.62                    -1.03569        -179.177         -39.6452          -80.53         -39.6452          -80.53       -0.0251465         142.562
0.621                   -1.03473         179.724         -39.6487        -81.5228         -39.6487        -81.5229       -0.0253678          142.48
0.622                   -1.03507         178.617         -39.6484        -82.5113         -39.6485        -82.5113        -0.025595         142.398
0.623                   -1.03668         177.501         -39.6446        -83.4957         -39.6446        -83.4957       -0.0258278         142.316
0.624                   -1.03952         176.376         -39.6372        -84.4766         -39.6373        -84.4765       -0.0260664         142.234
0.625                    -1.0436         175.239         -39.6266         -85.454         -39.6266        -85.4539       -0.0263108         142.151
0.626                   -1.04888         174.092         -39.6127        -86.4282         -39.6128        -86.4281       -0.0265609         142.068
0.627                   -1.05537         172.933         -39.5958        -87.3991         -39.5958         -87.399        -0.026817         141.985
0.628                   -1.06305         171.762         -39.5758        -88.3667         -39.5758        -88.3665       -0.0270788         141.902
0.629                   -1.07193         170.578         -39.5528        -89.3309         -39.5528        -89.3307       -0.0273466         141.818
0.63                    -1.08202         169.381         -39.5268        -90.2916         -39.5269        -90.2914       -0.0276204         141.734
0.631                   -1.09333          168.17         -39.4979        -91.2488         -39.4979        -91.2486       -0.0279002          141.65
0.632                   -1.10586         166.944          -39.466        -92.2025          -39.466        -92.2024       -0.0281861         141.565
0.633                   -1.11964         165.702          -39.431        -93.1528          -39.431        -93.1528       -0.0284781          141.48
0.634                    -1.1347         164.445         -39.3928        -94.1002         -39.3928        -94.1002       -0.0287763         141.395
0.635                   -1.15105          163.17         -39.3515         -95.045         -39.3515         -95.045       -0.0290808          141.31
0.636                   -1.16874         161.878         -39.3069        -95.9879         -39.3069         -95.988       -0.0293916         141.224
0.637                   -1.18778         160.568         -39.2589        -96.9298         -39.2589          -96.93       -0.0297089         141.138
0.638                   -1.20823         159.239         -39.2075        -97.8716         -39.2075        -97.8719       -0.0300327         141.052
0.639                   -1.23013          157.89         -39.1526        -98.8146         -39.1526        -98.8149        -0.030363         140.965
0.64                    -1.25353         156.521         -39.0943        -99.7599         -39.0943        -99.7603       -0.0307001         140.878
0.641                   -1.27847         155.131         -39.0324        -100.709         -39.0324        -100.709       -0.0310438         140.791
0.642                   -1.30502         153.718          -38.967        -101.663          -38.967        -101.664       -0.0313944         140.704
0.643                   -1.33324         152.282         -38.8982        -102.624         -38.8982        -102.625       -0.0317519         140.616
0.644                   -1.36319         150.822          -38.826        -103.593          -38.826        -103.593       -0.0321164         140.528
0.645                   -1.39494         149.338         -38.7505         -104.57         -38.7506        -104.571       -0.0324879         140.439
0.646                   -1.42859         147.828         -38.6718        -105.559         -38.6719        -105.559       -0.0328664          140.35
0.647                    -1.4642         146.291         -38.5901        -106.559         -38.5901        -106.559       -0.0332521         140.261
0.648                   -1.50186         144.726         -38.5054        -107.572         -38.5055        -107.572       -0.0336448         140.172
0.649                   -1.54167         143.132         -38.4179        -108.599          -38.418        -108.599       -0.0340447         140.082
0.65                    -1.58373         141.509         -38.3278         -109.64         -38.3279         -109.64       -0.0344516         139.992
0.651                   -1.62815         139.855         -38.2352        -110.697         -38.2353        -110.698       -0.0348655         139.901
0.652                   -1.67504         138.168         -38.1402        -111.771         -38.1403        -111.771       -0.0352864         139.811
0.653                   -1.72451         136.448         -38.0431        -112.862         -38.0432        -112.862       -0.0357139         139.719
0.654                    -1.7767         134.693          -37.944         -113.97         -37.9441         -113.97        -0.036148         139.628
0.655                   -1.83174         132.903         -37.8431        -115.097         -37.8432        -115.097       -0.0365885         139.536
0.656                   -1.88976         131.075         -37.7405        -116.243         -37.7406        -116.243       -0.0370351         139.444
0.657                   -1.95092         129.208         -37.6365        -117.408         -37.6366        -117.408       -0.0374876         139.351
0.658                   -2.01536         127.301         -37.5311        -118.593         -37.5312        -118.593       -0.0379456         139.258
0.659                   -2.08326         125.353         -37.4246        -119.798         -37.4247        -119.798       -0.0384091         139.164
0.66                    -2.15477         123.362         -37.3172        -121.024         -37.3173        -121.024       -0.0388779          139.07
0.661                   -2.23009         121.326          -37.209         -122.27         -37.2091         -122.27        -0.039352         138.976
0.662                   -2.30937         119.243         -37.1002        -123.538         -37.1002        -123.537       -0.0398316         138.881
0.663                   -2.39283         117.112          -36.991        -124.826          -36.991        -124.826       -0.0403169         138.786
0.664                   -2.48064         114.932         -36.8816        -126.136         -36.8816        -126.135       -0.0408084         138.691
0.665                   -2.57301         112.699         -36.7721        -127.466         -36.7722        -127.466       -0.0413068         138.595
0.666                   -2.67014         110.413         -36.6628        -128.818         -36.6629        -128.818       -0.0418129         138.498
0.667                   -2.77224         108.071         -36.5539        -130.192         -36.5539        -130.192       -0.0423275         138.401
0.668                   -2.87951         105.671         -36.4455        -131.586         -36.4456        -131.586       -0.0428515         138.304
0.669                   -2.99215          103.21         -36.3379        -133.001         -36.3379        -133.001       -0.0433858         138.206
0.67                    -3.11038         100.688         -36.2312        -134.437         -36.2312        -134.437       -0.0439312         138.107
0.671                   -3.23439         98.1009         -36.1256        -135.892         -36.1256        -135.892       -0.0444885         138.008
0.672                   -3.36437         95.4465         -36.0214        -137.368         -36.0214        -137.368       -0.0450583         137.909
0.673                    -3.5005         92.7225         -35.9187        -138.863         -35.9187        -138.863       -0.0456409         137.809
0.674                   -3.64292          89.926         -35.8177        -140.376         -35.8177        -140.376        -0.046237         137.708
0.675                   -3.79179         87.0543         -35.7186        -141.907         -35.7186        -141.907       -0.0468467         137.607
0.676                   -3.94721         84.1044         -35.6216        -143.456         -35.6215        -143.456       -0.0474704         137.506
0.677                   -4.10925         81.0735         -35.5268         -145.02         -35.5268         -145.02       -0.0481081         137.404
0.678                   -4.27796         77.9582         -35.4344          -146.6         -35.4344          -146.6       -0.0487601         137.301
0.679                   -4.45329         74.7553         -35.3446        -148.195         -35.3446        -148.195       -0.0494265         137.198
0.68                    -4.63519         71.4615         -35.2576        -149.802         -35.2576        -149.802       -0.0501074         137.094
0.681                   -4.82348         68.0733         -35.1734        -151.421         -35.1734        -151.422        -0.050803          136.99
0.682                   -5.01793         64.5871         -35.0922        -153.051         -35.0922        -153.052       -0.0515134         136.885
0.683                   -5.21819         60.9993         -35.0141        -154.691         -35.0141        -154.691       -0.0522388          136.78
0.684                   -5.42382         57.3063         -34.9392        -156.338         -34.9392        -156.339       -0.0529793         136.674
0.685                   -5.63423         53.5046         -34.8676        -157.992         -34.8676        -157.993       -0.0537351         136.567
0.686                   -5.84869         49.5908         -34.7993        -159.651         -34.7993        -159.652       -0.0545064          136.46
0.687                   -6.06632         45.5618         -34.7344        -161.314         -34.7344        -161.314       -0.0552935         136.352
0.688                   -6.28606         41.4149          -34.673        -162.979          -34.673        -162.979       -0.0560967         136.244
0.689                   -6.50666         37.1478          -34.615        -164.644          -34.615        -164.645       -0.0569161         136.135
0.69                    -6.72669         32.7593         -34.5605        -166.308         -34.5605        -166.309       -0.0577521         136.025
0.691                   -6.94454          28.249         -34.5094         -167.97         -34.5093        -167.971        -0.058605         135.915
0.692                   -7.15841         23.6178         -34.4616        -169.628         -34.4616        -169.628       -0.0594751         135.804
0.693                   -7.36632         18.8684         -34.4172         -171.28         -34.4172        -171.281       -0.0603628         135.692
0.694                    -7.5662          14.005         -34.3761        -172.925         -34.3761        -172.926       -0.0612685          135.58
0.695                   -7.75586         9.03407         -34.3382        -174.562         -34.3382        -174.563       -0.0621924         135.466
0.696                   -7.93311         3.96455         -34.3033         -176.19         -34.3033         -176.19       -0.0631351         135.353