! TOUCHSTONE file generated by CST MICROWAVE STUDIO
! Date and time: Thu Feb 11 19:33:35 2021
! Project name: Scenario_1_Planar_Body_Tissue_Out_of_Line.cst
! Parameters = {L_HA=400; Ltissue=1000; MT=2.54; Rad_Dielectric=30; Rad_Lower=7.3; Rad_Upper=30; Wtissue=1000; a_HA=580; a_WG=246; b_HA=500; b_WG=121; c_HA=0; c_WG=187; d_feed=85; dx1=346; dy1=0; h_feed=15; h_lower=18; h_upper=40; hfat=3; hgap=25; hmuscle=50; hskin=1.5}
! Header version: 2018
! Port assignment regex: !\s*Touchstone port\s*([0-9]+)\s*=\s*(CST MWS port|CST DS port)\s*([0-9]+|Zmin|Zmax)\s*\(\"(.*)\"\)(\s*mode\s*([0-9]+))?.*
! Touchstone port assignment:
! Touchstone port 1 = CST MWS port 1 ("")
! Touchstone port 2 = CST MWS port 2 ("")
# GHz S DB R 50
0.5                    -0.269143        -121.494         -55.4182          35.956         -55.4181         35.9559      -0.00797299         151.144
0.501                  -0.270242        -121.874         -55.3137          33.467         -55.3139         33.4664       -0.0080455         151.079
0.502                  -0.271327        -122.256         -55.2186         31.0356          -55.219         31.0347       -0.0081179         151.014
0.503                  -0.272403        -122.643          -55.132         28.6629         -55.1326         28.6619      -0.00819019         150.949
0.504                  -0.273474        -123.033         -55.0528         26.3496         -55.0537         26.3486       -0.0082624         150.884
0.505                  -0.274542        -123.426         -54.9802         24.0957         -54.9812         24.0948      -0.00833452         150.818
0.506                  -0.275611        -123.823         -54.9134         21.9006         -54.9145         21.8999      -0.00840658         150.753
0.507                  -0.276686        -124.223         -54.8514         19.7637         -54.8526         19.7631      -0.00847858         150.687
0.508                  -0.277769        -124.627         -54.7935         17.6838         -54.7948         17.6834      -0.00855054         150.622
0.509                  -0.278864        -125.035         -54.7392         15.6593         -54.7405         15.6592      -0.00862247         150.556
0.51                   -0.279977        -125.446         -54.6877         13.6888          -54.689         13.6889      -0.00869438          150.49
0.511                  -0.281109        -125.861         -54.6384         11.7705         -54.6398         11.7708       -0.0087663         150.425
0.512                  -0.282266         -126.28         -54.5908         9.90237         -54.5922         9.90287      -0.00883823         150.359
0.513                  -0.283452        -126.702         -54.5445         8.08254         -54.5459         8.08324      -0.00891019         150.293
0.514                  -0.284669        -127.128         -54.4991         6.30899         -54.5004         6.30987      -0.00898221         150.227
0.515                  -0.285924        -127.558          -54.454         4.57969         -54.4554         4.58073      -0.00905429          150.16
0.516                   -0.28722        -127.992          -54.409         2.89262         -54.4104         2.89379      -0.00912645         150.094
0.517                  -0.288562        -128.429         -54.3639         1.24577         -54.3651         1.24705      -0.00919871         150.028
0.518                  -0.289954        -128.871         -54.3182        -0.36283         -54.3194       -0.361448       -0.0092711         149.961
0.519                    -0.2914        -129.317         -54.2717        -1.93509         -54.2729        -1.93364      -0.00934363         149.895
0.52                   -0.292907        -129.766         -54.2243        -3.47288         -54.2254        -3.47137      -0.00941632         149.828
0.521                  -0.294478         -130.22         -54.1757          -4.978         -54.1767        -4.97646      -0.00948919         149.762
0.522                  -0.296118        -130.677         -54.1257        -6.45219         -54.1267        -6.45065      -0.00956226         149.695
0.523                  -0.297833        -131.139         -54.0743        -7.89714         -54.0752         -7.8956      -0.00963556         149.628
0.524                  -0.299629        -131.605         -54.0212        -9.31444         -54.0221        -9.31292      -0.00970911         149.561
0.525                   -0.30151        -132.075         -53.9663        -10.7056         -53.9672        -10.7041      -0.00978293         149.494
0.526                  -0.303483         -132.55         -53.9096        -12.0722         -53.9104        -12.0708      -0.00985705         149.427
0.527                  -0.305553        -133.028         -53.8509        -13.4155         -53.8516        -13.4142      -0.00993149          149.36
0.528                  -0.307727        -133.512         -53.7902         -14.737         -53.7908        -14.7357       -0.0100063         149.292
0.529                  -0.310011        -133.999         -53.7273        -16.0379         -53.7279        -16.0366       -0.0100814         149.225
0.53                   -0.312411        -134.492         -53.6623        -17.3193         -53.6628        -17.3182        -0.010157         149.157
0.531                  -0.314935        -134.989         -53.5949        -18.5826         -53.5954        -18.5815       -0.0102329          149.09
0.532                  -0.317589         -135.49         -53.5253        -19.8287         -53.5257        -19.8278       -0.0103094         149.022
0.533                  -0.320381        -135.996         -53.4533        -21.0589         -53.4537         -21.058       -0.0103862         148.954
0.534                  -0.323319        -136.507          -53.379        -22.2739         -53.3793        -22.2732       -0.0104636         148.886
0.535                  -0.326411        -137.023         -53.3022         -23.475         -53.3025        -23.4743       -0.0105416         148.818
0.536                  -0.329665        -137.544         -53.2229        -24.6628         -53.2232        -24.6623       -0.0106201          148.75
0.537                   -0.33309         -138.07         -53.1412        -25.8385         -53.1414         -25.838       -0.0106991         148.682
0.538                  -0.336695        -138.601         -53.0569        -27.0027          -53.057        -27.0023       -0.0107788         148.613
0.539                   -0.34049        -139.137         -52.9701        -28.1563         -52.9702        -28.1561       -0.0108592         148.545
0.54                   -0.344486        -139.679         -52.8807        -29.3001         -52.8808           -29.3       -0.0109402         148.476
0.541                  -0.348691        -140.226         -52.7887        -30.4349         -52.7887        -30.4348       -0.0110219         148.408
0.542                  -0.353119        -140.778         -52.6941        -31.5613         -52.6941        -31.5613       -0.0111044         148.339
0.543                   -0.35778        -141.336         -52.5969          -32.68         -52.5969        -32.6801       -0.0111876          148.27
0.544                  -0.362687          -141.9          -52.497        -33.7918          -52.497         -33.792       -0.0112716         148.201
0.545                  -0.367853         -142.47         -52.3945        -34.8973         -52.3944        -34.8975       -0.0113564         148.132
0.546                  -0.373292        -143.045         -52.2893        -35.9971         -52.2892        -35.9974       -0.0114421         148.063
0.547                  -0.379018        -143.627         -52.1814        -37.0918         -52.1813        -37.0922       -0.0115287         147.993
0.548                  -0.385046        -144.215         -52.0708         -38.182         -52.0707        -38.1825       -0.0116161         147.924
0.549                  -0.391393        -144.809         -51.9575        -39.2684         -51.9573         -39.269       -0.0117045         147.854
0.55                   -0.398075        -145.409         -51.8414        -40.3515         -51.8413        -40.3522       -0.0117939         147.785
0.551                  -0.405112        -146.016         -51.7226        -41.4319         -51.7224        -41.4326       -0.0118843         147.715
0.552                  -0.412521         -146.63          -51.601        -42.5102         -51.6009        -42.5109       -0.0119757         147.645
0.553                  -0.420324         -147.25         -51.4767        -43.5868         -51.4765        -43.5875       -0.0120681         147.575
0.554                  -0.428541        -147.878         -51.3496        -44.6623         -51.3494        -44.6631       -0.0121617         147.505
0.555                  -0.437197        -148.513         -51.2197        -45.7374         -51.2195        -45.7382       -0.0122563         147.435
0.556                  -0.446316        -149.155         -51.0869        -46.8125         -51.0867        -46.8133       -0.0123521         147.364
0.557                  -0.455922        -149.804         -50.9513        -47.8882         -50.9512         -47.889        -0.012449         147.294
0.558                  -0.466046        -150.461         -50.8129         -48.965         -50.8127        -48.9659       -0.0125471         147.223
0.559                  -0.476715        -151.126         -50.6717        -50.0435         -50.6715        -50.0444       -0.0126464         147.152
0.56                   -0.487962        -151.799         -50.5275        -51.1242         -50.5273        -51.1251        -0.012747         147.081
0.561                   -0.49982        -152.481         -50.3805        -52.2077         -50.3803        -52.2086       -0.0128488          147.01
0.562                  -0.512325        -153.171         -50.2306        -53.2946         -50.2304        -53.2955       -0.0129519         146.939
0.563                  -0.525516        -153.869         -50.0778        -54.3855         -50.0776        -54.3863       -0.0130563         146.868
0.564                  -0.539435        -154.576          -49.922        -55.4808         -49.9218        -55.4816        -0.013162         146.796
0.565                  -0.554125        -155.293         -49.7633        -56.5813         -49.7632        -56.5821       -0.0132691         146.725
0.566                  -0.569634        -156.019         -49.6017        -57.6875         -49.6015        -57.6883       -0.0133775         146.653
0.567                  -0.586013        -156.754         -49.4371        -58.8001         -49.4369        -58.8009       -0.0134874         146.581
0.568                  -0.603316        -157.499         -49.2695        -59.9197         -49.2694        -59.9204       -0.0135986         146.509
0.569                  -0.621603        -158.254         -49.0989         -61.047         -49.0988        -61.0477       -0.0137114         146.437
0.57                   -0.640937         -159.02         -48.9254        -62.1827         -48.9253        -62.1833       -0.0138255         146.365
0.571                  -0.661385        -159.796         -48.7488        -63.3274         -48.7487         -63.328       -0.0139412         146.292
0.572                  -0.683022        -160.583         -48.5693         -64.482         -48.5692        -64.4825       -0.0140584          146.22
0.573                  -0.705925        -161.381         -48.3867        -65.6471         -48.3866        -65.6476       -0.0141771         146.147
0.574                  -0.730181         -162.19         -48.2011        -66.8236          -48.201         -66.824       -0.0142973         146.074
0.575                  -0.755882        -163.011         -48.0124        -68.0123         -48.0124        -68.0126       -0.0144191         146.001
0.576                  -0.783126        -163.844         -47.8208        -69.2139         -47.8207        -69.2142       -0.0145426         145.928
0.577                  -0.812021         -164.69         -47.6261        -70.4295         -47.6261        -70.4296       -0.0146676         145.855
0.578                  -0.842684        -165.548         -47.4284        -71.6598         -47.4284        -71.6599       -0.0147944         145.781
0.579                  -0.875239        -166.419         -47.2277         -72.906         -47.2277         -72.906       -0.0149228         145.707
0.58                   -0.909823        -167.302          -47.024        -74.1688          -47.024        -74.1688       -0.0150529         145.634
0.581                  -0.946582          -168.2         -46.8174        -75.4495         -46.8174        -75.4494       -0.0151849          145.56
0.582                  -0.985678         -169.11         -46.6078         -76.749         -46.6078        -76.7488       -0.0153186         145.486
0.583                   -1.02728        -170.035         -46.3952        -78.0685         -46.3953        -78.0682       -0.0154542         145.411
0.584                   -1.07158        -170.974         -46.1798        -79.4091         -46.1799        -79.4087       -0.0155917         145.337
0.585                   -1.11878        -171.927         -45.9616        -80.7721         -45.9617        -80.7716       -0.0157311         145.262
0.586                   -1.16909        -172.894         -45.7406        -82.1587         -45.7407        -82.1581       -0.0158726         145.187
0.587                   -1.22276        -173.875         -45.5169        -83.5701          -45.517        -83.5695       -0.0160162         145.112
0.588                   -1.28005        -174.871         -45.2906        -85.0079         -45.2907        -85.0071       -0.0161619         145.037
0.589                   -1.34124        -175.882         -45.0617        -86.4732         -45.0618        -86.4724         -0.01631         144.962
0.59                    -1.40662        -176.907         -44.8303        -87.9677         -44.8305        -87.9667       -0.0164604         144.886
0.591                   -1.47653        -177.945         -44.5967        -89.4926         -44.5968        -89.4917       -0.0166133         144.811
0.592                   -1.55133        -178.997         -44.3608        -91.0497         -44.3609        -91.0487       -0.0167689         144.735
0.593                   -1.63139         179.937         -44.1229        -92.6404          -44.123        -92.6393       -0.0169272         144.659
0.594                   -1.71713          178.86         -43.8831        -94.2663         -43.8833        -94.2651       -0.0170884         144.582
0.595                   -1.80901         177.771         -43.6417        -95.9291         -43.6418        -95.9278       -0.0172528         144.506
0.596                   -1.90748         176.672         -43.3988        -97.6302         -43.3989        -97.6289       -0.0174205         144.429
0.597                   -2.01308         175.564         -43.1547        -99.3715         -43.1548          -99.37       -0.0175918         144.353
0.598                   -2.12635          174.45         -42.9096        -101.154         -42.9097        -101.153       -0.0177669         144.275
0.599                   -2.24787         173.331         -42.6639         -102.98          -42.664        -102.979        -0.017946         144.198
0.6                     -2.37825         172.211         -42.4179        -104.851          -42.418         -104.85       -0.0181295         144.121
0.601                   -2.51815         171.093         -42.1719        -106.768         -42.1721        -106.766       -0.0183178         144.043
0.602                   -2.66823          169.98         -41.9264        -108.732         -41.9266        -108.731       -0.0185111         143.965
0.603                    -2.8292         168.879         -41.6818        -110.745          -41.682        -110.744       -0.0187098         143.887
0.604                   -3.00176         167.795         -41.4386        -112.808         -41.4387        -112.807       -0.0189143         143.809
0.605                   -3.18661         166.734         -41.1972        -114.922         -41.1973         -114.92       -0.0191251          143.73
0.606                   -3.38446         165.704         -40.9583        -117.086         -40.9584        -117.084       -0.0193425         143.651
0.607                   -3.59593         164.716         -40.7223        -119.302         -40.7224          -119.3       -0.0195669         143.573
0.608                   -3.82162          163.78         -40.4899         -121.57           -40.49        -121.568       -0.0197988         143.493
0.609                   -4.06197         162.909         -40.2617        -123.888         -40.2618        -123.887       -0.0200386         143.414
0.61                     -4.3173         162.117         -40.0384        -126.257         -40.0384        -126.256       -0.0202866         143.334
0.611                   -4.58765          161.42         -39.8205        -128.675         -39.8206        -128.674       -0.0205432         143.254
0.612                    -4.8728         160.837         -39.6089         -131.14          -39.609        -131.139       -0.0208086         143.174
0.613                   -5.17206         160.389         -39.4041        -133.651         -39.4041         -133.65        -0.021083         143.094
0.614                   -5.48426         160.097         -39.2068        -136.204         -39.2068        -136.203       -0.0213665         143.014
0.615                   -5.80749         159.987         -39.0175        -138.796         -39.0176        -138.795       -0.0216592         142.933
0.616                   -6.13904         160.082          -38.837        -141.424          -38.837        -141.423       -0.0219609         142.852
0.617                   -6.47518         160.407         -38.6656        -144.083         -38.6656        -144.082       -0.0222714         142.771
0.618                   -6.81104         160.984         -38.5038        -146.768         -38.5038        -146.767       -0.0225904          142.69
0.619                    -7.1405         161.832         -38.3521        -149.475         -38.3521        -149.474       -0.0229175         142.608
0.62                    -7.45621         162.962         -38.2107        -152.197         -38.2107        -152.197       -0.0232522         142.526
0.621                   -7.74976         164.373         -38.0798         -154.93         -38.0798         -154.93       -0.0235938         142.445
0.622                   -8.01209         166.054         -37.9595        -157.667         -37.9595        -157.667       -0.0239417         142.362
0.623                   -8.23415         167.974         -37.8499        -160.403         -37.8499        -160.403       -0.0242952          142.28
0.624                   -8.40777         170.085         -37.7507        -163.131         -37.7508        -163.131       -0.0246535         142.198
0.625                   -8.52661         172.326         -37.6619        -165.847         -37.6619        -165.847        -0.025016         142.115
0.626                   -8.58707         174.623         -37.5831        -168.544         -37.5831        -168.544       -0.0253819         142.032
0.627                   -8.58874         176.896         -37.5139        -171.217         -37.5139        -171.218       -0.0257506         141.949
0.628                   -8.53443         179.071         -37.4539        -173.863         -37.4539        -173.863       -0.0261215         141.865
0.629                   -8.42972        -178.916         -37.4025        -176.475         -37.4025        -176.476       -0.0264941         141.782
0.63                    -8.28207        -177.115         -37.3592        -179.052         -37.3592        -179.052        -0.026868         141.698
0.631                   -8.09995        -175.558         -37.3233         178.411         -37.3233         178.411       -0.0272429         141.613
0.632                   -7.89187        -174.262         -37.2942         175.917         -37.2942         175.916       -0.0276185         141.529
0.633                   -7.66581        -173.232         -37.2712         173.466         -37.2712         173.466       -0.0279948         141.444
0.634                   -7.42879        -172.458         -37.2537         171.062         -37.2537         171.062       -0.0283716         141.359
0.635                   -7.18667        -171.928         -37.2409         168.705         -37.2409         168.704       -0.0287489         141.274
0.636                   -6.94418        -171.623         -37.2322         166.395         -37.2323         166.395        -0.029127         141.189
0.637                   -6.70494        -171.523         -37.2271         164.134         -37.2271         164.134       -0.0295058         141.103
0.638                    -6.4717        -171.607         -37.2248         161.921         -37.2248         161.921       -0.0298855         141.017
0.639                   -6.24639        -171.855         -37.2248         159.756         -37.2248         159.756       -0.0302665         140.931
0.64                    -6.03033        -172.247         -37.2265         157.638         -37.2265         157.638        -0.030649         140.844
0.641                   -5.82437        -172.767         -37.2294         155.566         -37.2294         155.566       -0.0310332         140.757
0.642                   -5.62896          -173.4         -37.2331         153.538         -37.2331         153.538       -0.0314194          140.67
0.643                   -5.44429        -174.131         -37.2371         151.554          -37.237         151.554        -0.031808         140.582
0.644                   -5.27033        -174.948         -37.2409         149.612         -37.2409         149.612       -0.0321993         140.494
0.645                   -5.10691        -175.841         -37.2442          147.71         -37.2442         147.711       -0.0325936         140.406
0.646                   -4.95374        -176.801         -37.2467         145.847         -37.2467         145.848       -0.0329912         140.317
0.647                   -4.81049         -177.82          -37.248         144.021          -37.248         144.021       -0.0333925         140.228
0.648                   -4.67676        -178.891         -37.2479         142.229         -37.2479          142.23       -0.0337977         140.139
0.649                   -4.55214         179.992         -37.2461         140.471         -37.2461         140.472       -0.0342072         140.049
0.65                    -4.43622         178.833         -37.2424         138.745         -37.2423         138.746       -0.0346213         139.959
0.651                   -4.32858         177.636         -37.2366         137.047         -37.2365         137.049       -0.0350403         139.868
0.652                    -4.2288         176.406         -37.2284         135.378         -37.2283         135.379       -0.0354645         139.777
0.653                   -4.13651         175.145         -37.2178         133.734         -37.2177         133.735       -0.0358942         139.686
0.654                   -4.05132         173.855         -37.2045         132.114         -37.2044         132.116       -0.0363297         139.595
0.655                   -3.97288         172.538         -37.1885         130.517         -37.1884         130.518       -0.0367712         139.502
0.656                   -3.90086         171.197         -37.1697         128.939         -37.1696         128.941       -0.0372191          139.41
0.657                   -3.83496         169.832         -37.1478         127.381         -37.1477         127.383       -0.0376736         139.317
0.658                   -3.77489         168.444          -37.123          125.84         -37.1229         125.842        -0.038135         139.224
0.659                   -3.72037         167.034         -37.0949         124.315         -37.0949         124.316       -0.0386036          139.13
0.66                    -3.67118         165.603         -37.0637         122.803         -37.0636         122.805       -0.0390797         139.036
0.661                   -3.62709         164.152         -37.0292         121.304         -37.0291         121.305       -0.0395634         138.942
0.662                    -3.5879         162.679         -36.9913         119.816         -36.9913         119.817       -0.0400551         138.847
0.663                   -3.55343         161.186         -36.9501         118.338         -36.9501         118.339       -0.0405551         138.751
0.664                   -3.52351         159.672         -36.9054         116.869         -36.9055         116.869       -0.0410636         138.656
0.665                     -3.498         158.138         -36.8573         115.407         -36.8574         115.406       -0.0415809         138.559
0.666                   -3.47678         156.582         -36.8057         113.951         -36.8057          113.95       -0.0421073         138.463
0.667                   -3.45972         155.004         -36.7506           112.5         -36.7506         112.498        -0.042643         138.365
0.668                   -3.44674         153.405         -36.6919         111.053         -36.6919         111.051       -0.0431884         138.268
0.669                   -3.43776         151.782         -36.6298          109.61         -36.6297         109.606       -0.0437437         138.169
0.67                     -3.4327         150.137         -36.5641         108.168          -36.564         108.164       -0.0443091         138.071
0.671                   -3.43151         148.467         -36.4949         106.729         -36.4948         106.724       -0.0448851         137.972
0.672                   -3.43416         146.772         -36.4224         105.291         -36.4221         105.285       -0.0454718         137.872
0.673                   -3.44061         145.052         -36.3464         103.853         -36.3461         103.846       -0.0460697         137.772
0.674                   -3.45085         143.305         -36.2672         102.414         -36.2667         102.407        -0.046679         137.671
0.675                   -3.46488          141.53         -36.1848         100.975         -36.1842         100.967       -0.0472999          137.57
0.676                   -3.48271         139.727         -36.0993         99.5334         -36.0985         99.5251        -0.047933         137.468
0.677                   -3.50435         137.893          -36.011         98.0896           -36.01         98.0809       -0.0485784         137.366
0.678                   -3.52984         136.029         -35.9198         96.6424         -35.9186         96.6336       -0.0492365         137.263
0.679                   -3.55922         134.133          -35.826         95.1909         -35.8246         95.1822       -0.0499076         137.159
0.68                    -3.59253         132.203         -35.7297         93.7342         -35.7281         93.7257       -0.0505922         137.055
0.681                   -3.62985         130.238          -35.631         92.2713         -35.6294         92.2631       -0.0512906         136.951
0.682                   -3.67125         128.237         -35.5302          90.801         -35.5285         90.7933       -0.0520031         136.846
0.683                    -3.7168         126.198         -35.4274         89.3222         -35.4255         89.3152       -0.0527302          136.74
0.684                    -3.7666         124.119         -35.3228         87.8338         -35.3208         87.8275       -0.0534722         136.633
0.685                   -3.82074         121.999         -35.2165         86.3346         -35.2144         86.3291       -0.0542295         136.526
0.686                   -3.87935         119.837         -35.1085         84.8236         -35.1065         84.8188       -0.0550026         136.419
0.687                   -3.94252          117.63         -34.9992         83.2996         -34.9971         83.2956       -0.0557918          136.31
0.688                   -4.01038         115.377         -34.8887         81.7616         -34.8866         81.7583       -0.0565977         136.201
0.689                   -4.08307         113.075          -34.777         80.2085         -34.7749         80.2059       -0.0574206         136.092
0.69                    -4.16073         110.722         -34.6643         78.6395         -34.6623         78.6375       -0.0582611         135.982
0.691                   -4.24347         108.317         -34.5508         77.0536         -34.5488         77.0522       -0.0591197         135.871
0.692                   -4.33146         105.857         -34.4366         75.4502         -34.4347         75.4492       -0.0599967         135.759
0.693                   -4.42484          103.34         -34.3219         73.8284         -34.3201         73.8279       -0.0608927         135.647
0.694                   -4.52374         100.763         -34.2068         72.1877         -34.2051         72.1875       -0.0618084         135.533
0.695                   -4.62831         98.1235         -34.0915         70.5275         -34.0899         70.5276       -0.0627441          135.42
0.696                   -4.73867         95.4189         -33.9762         68.8474         -33.9747         68.8478       -0.0637004         135.305