! TOUCHSTONE file generated by CST MICROWAVE STUDIO
! Date and time: Thu Feb 11 19:33:51 2021
! Project name: Scenario_1_Planar_Body_Tissue_Out_of_Line.cst
! Parameters = {L_HA=400; Ltissue=1000; MT=2.54; Rad_Dielectric=30; Rad_Lower=7.3; Rad_Upper=30; Wtissue=1000; a_HA=580; a_WG=246; b_HA=500; b_WG=121; c_HA=0; c_WG=187; d_feed=85; dx1=346; dy1=17.3; h_feed=15; h_lower=18; h_upper=40; hfat=3; hgap=25; hmuscle=50; hskin=1.5}
! Header version: 2018
! Port assignment regex: !\s*Touchstone port\s*([0-9]+)\s*=\s*(CST MWS port|CST DS port)\s*([0-9]+|Zmin|Zmax)\s*\(\"(.*)\"\)(\s*mode\s*([0-9]+))?.*
! Touchstone port assignment:
! Touchstone port 1 = CST MWS port 1 ("")
! Touchstone port 2 = CST MWS port 2 ("")
# GHz S DB R 50
0.5                    -0.269497        -121.499         -55.4076         35.9944         -55.4076         35.9942       -0.0079856         151.145
0.501                  -0.269688        -121.906         -55.3964         34.7475         -55.3963         34.7471       -0.0080379          151.08
0.502                  -0.269935        -122.316         -55.3835         33.4925         -55.3833         33.4919      -0.00809105         151.014
0.503                  -0.270238        -122.728         -55.3687         32.2294         -55.3686         32.2286      -0.00814505         150.949
0.504                    -0.2706        -123.143         -55.3522         30.9583          -55.352         30.9574       -0.0081999         150.884
0.505                  -0.271021         -123.56         -55.3339         29.6795         -55.3336         29.6784      -0.00825561         150.818
0.506                  -0.271504         -123.98         -55.3136         28.3931         -55.3132         28.3918      -0.00831218         150.753
0.507                  -0.272051        -124.402         -55.2914         27.0993          -55.291         27.0979      -0.00836962         150.687
0.508                  -0.272663        -124.827         -55.2672         25.7982         -55.2667         25.7967      -0.00842792         150.621
0.509                  -0.273342        -125.255         -55.2409         24.4901         -55.2405         24.4885       -0.0084871         150.556
0.51                    -0.27409        -125.685         -55.2126         23.1752         -55.2121         23.1734      -0.00854715          150.49
0.511                  -0.274909        -126.118         -55.1822         21.8537         -55.1816         21.8517      -0.00860807         150.424
0.512                  -0.275803        -126.555         -55.1496         20.5257          -55.149         20.5237      -0.00866988         150.358
0.513                  -0.276771        -126.994         -55.1148         19.1916         -55.1141         19.1895      -0.00873258         150.292
0.514                  -0.277818        -127.435         -55.0777         17.8516         -55.0771         17.8494      -0.00879616         150.226
0.515                  -0.278946         -127.88         -55.0384         16.5059         -55.0377         16.5037      -0.00886064         150.159
0.516                  -0.280157        -128.328         -54.9968         15.1548          -54.996         15.1525      -0.00892602         150.093
0.517                  -0.281454        -128.779         -54.9528         13.7986          -54.952         13.7962      -0.00899229         150.027
0.518                   -0.28284        -129.234         -54.9064         12.4375         -54.9056         12.4351      -0.00905947          149.96
0.519                  -0.284318        -129.691         -54.8576         11.0718         -54.8568         11.0694      -0.00912756         149.893
0.52                   -0.285891        -130.151         -54.8064         9.70176         -54.8055         9.69932      -0.00919655         149.827
0.521                  -0.287562        -130.615         -54.7527         8.32772         -54.7518         8.32525      -0.00926647          149.76
0.522                  -0.289335        -131.083         -54.6965         6.94993         -54.6956         6.94746       -0.0093373         149.693
0.523                  -0.291213        -131.553         -54.6378         5.56869         -54.6368         5.56621      -0.00940905         149.626
0.524                    -0.2932        -132.027         -54.5765         4.18429         -54.5755          4.1818      -0.00948173         149.559
0.525                  -0.295301        -132.505         -54.5126         2.79701         -54.5117         2.79453      -0.00955534         149.492
0.526                  -0.297518        -132.986         -54.4462         1.40714         -54.4452         1.40467      -0.00962988         149.425
0.527                  -0.299857        -133.471         -54.3772        0.014976         -54.3762       0.0125184      -0.00970536         149.358
0.528                  -0.302323         -133.96         -54.3055        -1.37921         -54.3045        -1.38164      -0.00978178          149.29
0.529                  -0.304919        -134.452         -54.2313        -2.77512         -54.2303        -2.77754      -0.00985914         149.223
0.53                   -0.307652        -134.949         -54.1544         -4.1725         -54.1533        -4.17489      -0.00993744         149.155
0.531                  -0.310526        -135.449         -54.0748        -5.57107         -54.0738        -5.57343       -0.0100167         149.088
0.532                  -0.313547        -135.953         -53.9926        -6.97057         -53.9916        -6.97289       -0.0100969          149.02
0.533                  -0.316722        -136.462         -53.9077        -8.37075         -53.9067        -8.37303       -0.0101781         148.952
0.534                  -0.320055        -136.974         -53.8202        -9.77135         -53.8191        -9.77359       -0.0102602         148.884
0.535                  -0.323555        -137.491           -53.73        -11.1721         -53.7289        -11.1743       -0.0103433         148.816
0.536                  -0.327227        -138.013         -53.6371        -12.5729         -53.6361        -12.5751       -0.0104273         148.748
0.537                  -0.331079        -138.538         -53.5415        -13.9734         -53.5405        -13.9755       -0.0105124         148.679
0.538                   -0.33512        -139.069         -53.4433        -15.3735         -53.4423        -15.3755       -0.0105983         148.611
0.539                  -0.339356        -139.604         -53.3425        -16.7729         -53.3415        -16.7749       -0.0106853         148.543
0.54                   -0.343797        -140.143          -53.239        -18.1715          -53.238        -18.1735       -0.0107732         148.474
0.541                  -0.348452        -140.688         -53.1328        -19.5692         -53.1318        -19.5711       -0.0108621         148.405
0.542                  -0.353331        -141.238          -53.024        -20.9657          -53.023        -20.9675        -0.010952         148.337
0.543                  -0.358443        -141.792         -52.9126         -22.361         -52.9116        -22.3628       -0.0110429         148.268
0.544                    -0.3638        -142.352         -52.7985        -23.7549         -52.7976        -23.7566       -0.0111347         148.199
0.545                  -0.369413        -142.917         -52.6818        -25.1474         -52.6809         -25.149       -0.0112275          148.13
0.546                  -0.375294        -143.488         -52.5625        -26.5383         -52.5616        -26.5399       -0.0113213         148.061
0.547                  -0.381457        -144.064         -52.4407        -27.9276         -52.4398        -27.9292       -0.0114161         147.991
0.548                  -0.387914        -144.646         -52.3162        -29.3153         -52.3154        -29.3168       -0.0115119         147.922
0.549                  -0.394682        -145.233         -52.1892        -30.7013         -52.1884        -30.7028       -0.0116086         147.852
0.55                   -0.401774        -145.827         -52.0596        -32.0857         -52.0588        -32.0871       -0.0117064         147.783
0.551                  -0.409208        -146.426         -51.9275        -33.4684         -51.9267        -33.4698       -0.0118051         147.713
0.552                  -0.417001        -147.032         -51.7928        -34.8496          -51.792        -34.8509       -0.0119047         147.643
0.553                  -0.425173        -147.645         -51.6556        -36.2291         -51.6549        -36.2304       -0.0120054         147.573
0.554                  -0.433742        -148.264         -51.5159        -37.6072         -51.5152        -37.6084        -0.012107         147.503
0.555                   -0.44273        -148.889         -51.3737         -38.984          -51.373        -38.9851       -0.0122096         147.433
0.556                   -0.45216        -149.522          -51.229        -40.3594         -51.2283        -40.3605       -0.0123132         147.362
0.557                  -0.462056        -150.162         -51.0818        -41.7338         -51.0811        -41.7348       -0.0124177         147.292
0.558                  -0.472445        -150.809         -50.9321        -43.1072         -50.9315        -43.1082       -0.0125232         147.221
0.559                  -0.483352        -151.463           -50.78        -44.4799         -50.7794        -44.4808       -0.0126296         147.151
0.56                   -0.494809        -152.125         -50.6254         -45.852         -50.6248        -45.8529        -0.012737          147.08
0.561                  -0.506848        -152.795         -50.4684        -47.2238         -50.4678        -47.2247       -0.0128453         147.009
0.562                  -0.519501        -153.473         -50.3089        -48.5956         -50.3084        -48.5964       -0.0129545         146.938
0.563                  -0.532805        -154.159          -50.147        -49.9676         -50.1465        -49.9683       -0.0130647         146.866
0.564                    -0.5468        -154.854         -49.9827        -51.3401         -49.9822        -51.3408       -0.0131757         146.795
0.565                  -0.561527        -155.558         -49.8159        -52.7135         -49.8154        -52.7142       -0.0132877         146.724
0.566                  -0.577032        -156.271         -49.6467        -54.0882         -49.6463        -54.0888       -0.0134006         146.652
0.567                  -0.593362        -156.993         -49.4751        -55.4645         -49.4747         -55.465       -0.0135143          146.58
0.568                  -0.610571        -157.724         -49.3011        -56.8428         -49.3007        -56.8433       -0.0136289         146.508
0.569                  -0.628713        -158.465         -49.1247        -58.2236         -49.1243        -58.2241       -0.0137444         146.436
0.57                    -0.64785        -159.216         -48.9459        -59.6074         -48.9455        -59.6078       -0.0138607         146.364
0.571                  -0.668047        -159.978         -48.7646        -60.9946         -48.7644        -60.9949       -0.0139778         146.292
0.572                  -0.689374         -160.75          -48.581        -62.3857         -48.5808        -62.3861       -0.0140958         146.219
0.573                  -0.711906        -161.533          -48.395        -63.7815         -48.3948        -63.7818       -0.0142146         146.147
0.574                  -0.735727        -162.328         -48.2066        -65.1823         -48.2064        -65.1826       -0.0143341         146.074
0.575                  -0.760923        -163.133         -48.0158         -66.589         -48.0156        -66.5892       -0.0144545         146.001
0.576                  -0.787592        -163.951         -47.8227        -68.0021         -47.8225        -68.0022       -0.0145756         145.928
0.577                  -0.815836        -164.781         -47.6271        -69.4223          -47.627        -69.4224       -0.0146975         145.855
0.578                  -0.845768        -165.623         -47.4292        -70.8504         -47.4291        -70.8504       -0.0148201         145.782
0.579                   -0.87751        -166.478          -47.229        -72.2871         -47.2289        -72.2871       -0.0149435         145.708
0.58                   -0.911194        -167.346         -47.0264        -73.7334         -47.0263        -73.7333       -0.0150677         145.634
0.581                  -0.946962        -168.227         -46.8214        -75.1899         -46.8214        -75.1898       -0.0151926          145.56
0.582                   -0.98497        -169.122         -46.6142        -76.6577         -46.6141        -76.6575       -0.0153183         145.486
0.583                   -1.02539        -170.031         -46.4046        -78.1376         -46.4046        -78.1374       -0.0154448         145.412
0.584                   -1.06839        -170.954         -46.1928        -79.6308         -46.1928        -79.6305       -0.0155721         145.338
0.585                   -1.11419        -171.891         -45.9788        -81.1381         -45.9788        -81.1377       -0.0157003         145.263
0.586                   -1.16299        -172.843         -45.7626        -82.6607         -45.7626        -82.6603       -0.0158295         145.189
0.587                   -1.21503         -173.81         -45.5442        -84.1996         -45.5442        -84.1992       -0.0159596         145.114
0.588                   -1.27057        -174.791         -45.3237        -85.7562         -45.3237        -85.7557       -0.0160909         145.039
0.589                   -1.32988        -175.787         -45.1011        -87.3316         -45.1012         -87.331       -0.0162235         144.964
0.59                    -1.39326        -176.798         -44.8766         -88.927         -44.8766        -88.9264       -0.0163574         144.888
0.591                   -1.46104        -177.823         -44.6501        -90.5438         -44.6502        -90.5432       -0.0164929         144.812
0.592                   -1.53356        -178.863         -44.4219        -92.1834          -44.422        -92.1827       -0.0166303         144.737
0.593                   -1.61123        -179.916         -44.1919        -93.8472          -44.192        -93.8464       -0.0167697         144.661
0.594                   -1.69444         179.017         -43.9604        -95.5365         -43.9605        -95.5357       -0.0169115         144.584
0.595                   -1.78365         177.938         -43.7274        -97.2529         -43.7275         -97.252       -0.0170562         144.508
0.596                   -1.87934         176.847         -43.4931         -98.998         -43.4932         -98.997       -0.0172041         144.431
0.597                   -1.98202         175.747         -43.2577        -100.773         -43.2578        -100.772       -0.0173558         144.354
0.598                   -2.09227         174.638         -43.0213         -102.58         -43.0214        -102.579       -0.0175117         144.277
0.599                   -2.21066         173.524         -42.7842         -104.42         -42.7844        -104.419       -0.0176726           144.2
0.6                     -2.33784         172.406         -42.5467        -106.295         -42.5468        -106.294       -0.0178392         144.123
0.601                   -2.47447         171.288         -42.3089        -108.206         -42.3091        -108.205       -0.0180122         144.045
0.602                   -2.62125         170.173         -42.0713        -110.154         -42.0714        -110.153       -0.0181924         143.967
0.603                   -2.77892         169.068         -41.8341        -112.142         -41.8342        -112.141       -0.0183806         143.889
0.604                   -2.94821         167.976         -41.5976        -114.171         -41.5977        -114.169       -0.0185776          143.81
0.605                   -3.12989         166.905         -41.3623        -116.241         -41.3624        -116.239       -0.0187843         143.731
0.606                    -3.3247         165.863         -41.1287        -118.353         -41.1288        -118.352       -0.0190015         143.653
0.607                   -3.53335         164.858          -40.897         -120.51         -40.8971        -120.508       -0.0192297         143.573
0.608                   -3.75651         163.903         -40.6679         -122.71          -40.668        -122.709       -0.0194695         143.494
0.609                   -3.99472         163.009         -40.4419        -124.955          -40.442        -124.954       -0.0197213         143.415
0.61                    -4.24839         162.191         -40.2195        -127.245         -40.2196        -127.244       -0.0199854         143.335
0.611                   -4.51769         161.465         -40.0013         -129.58         -40.0014        -129.579       -0.0202616         143.255
0.612                   -4.80249         160.852         -39.7878        -131.958         -39.7879        -131.957       -0.0205497         143.175
0.613                   -5.10227          160.37         -39.5798         -134.38         -39.5798        -134.379       -0.0208493         143.094
0.614                   -5.41593         160.045         -39.3777        -136.843         -39.3777        -136.842       -0.0211597         143.014
0.615                   -5.74173           159.9         -39.1822        -139.346         -39.1822        -139.345         -0.02148         142.933
0.616                   -6.07701         159.963         -38.9939        -141.886         -38.9939        -141.885       -0.0218094         142.852
0.617                   -6.41811         160.259         -38.8134         -144.46         -38.8134        -144.459       -0.0221466         142.771
0.618                   -6.76013         160.812         -38.6412        -147.066         -38.6412        -147.065       -0.0224906          142.69
0.619                   -7.09684         161.644         -38.4779        -149.699         -38.4778        -149.698       -0.0228403         142.609
0.62                    -7.42065         162.768         -38.3237        -152.355         -38.3237        -152.354       -0.0231945         142.527
0.621                   -7.72277         164.187         -38.1792        -155.029         -38.1792        -155.029       -0.0235523         142.445
0.622                   -7.99364         165.887         -38.0447        -157.717         -38.0447        -157.716       -0.0239129         142.363
0.623                   -8.22357         167.841         -37.9203        -160.413         -37.9202        -160.412       -0.0242753         142.281
0.624                   -8.40374             170         -37.8061        -163.111         -37.8061        -163.111       -0.0246391         142.199
0.625                   -8.52725         172.297         -37.7022        -165.806         -37.7022        -165.806       -0.0250036         142.116
0.626                    -8.5901         174.655         -37.6085        -168.493         -37.6085        -168.493       -0.0253686         142.033
0.627                   -8.59174         176.991         -37.5249        -171.167         -37.5248        -171.166       -0.0257338          141.95
0.628                   -8.53514         179.225          -37.451         -173.82          -37.451         -173.82       -0.0260991         141.867
0.629                   -8.42627        -178.711         -37.3865         -176.45         -37.3865         -176.45       -0.0264643         141.784
0.63                    -8.27312         -176.87         -37.3311        -179.051         -37.3311        -179.051       -0.0268297           141.7
0.631                   -8.08472        -175.286         -37.2841         178.381         -37.2841         178.381       -0.0271952         141.616
0.632                   -7.87011        -173.974         -37.2451          175.85         -37.2451          175.85       -0.0275611         141.531
0.633                    -7.6377        -172.937         -37.2135         173.359         -37.2135         173.359       -0.0279276         141.447
0.634                    -7.3948        -172.166         -37.1885         170.912         -37.1886         170.911       -0.0282948         141.362
0.635                   -7.14748        -171.645         -37.1696         168.509         -37.1697         168.509       -0.0286632         141.277
0.636                   -6.90056        -171.355         -37.1562         166.154         -37.1562         166.153       -0.0290328         141.191
0.637                   -6.65773        -171.274         -37.1474         163.846         -37.1474         163.846       -0.0294041         141.106
0.638                   -6.42169        -171.379         -37.1427         161.588         -37.1427         161.588       -0.0297773          141.02
0.639                   -6.19433        -171.649         -37.1414          159.38         -37.1414          159.38       -0.0301527         140.933
0.64                    -5.97693        -172.064         -37.1429         157.221         -37.1429         157.221       -0.0305306         140.847
0.641                   -5.77024        -172.607         -37.1465         155.112         -37.1466         155.112       -0.0309113          140.76
0.642                   -5.57466        -173.262         -37.1518         153.051         -37.1518         153.051       -0.0312951         140.672
0.643                   -5.39028        -174.014         -37.1581         151.039         -37.1582         151.038       -0.0316823         140.585
0.644                   -5.21703        -174.852          -37.165         149.072         -37.1651         149.072        -0.032073         140.497
0.645                   -5.05466        -175.764         -37.1719         147.151          -37.172         147.151       -0.0324677         140.408
0.646                   -4.90284        -176.741         -37.1785         145.274         -37.1786         145.274       -0.0328665          140.32
0.647                   -4.76117        -177.776         -37.1844          143.44         -37.1845         143.439       -0.0332696         140.231
0.648                   -4.62922        -178.861         -37.1891         141.645         -37.1892         141.645       -0.0336775         140.141
0.649                   -4.50654        -179.992         -37.1923         139.889         -37.1924         139.889       -0.0340902         140.051
0.65                    -4.39269         178.838         -37.1938          138.17         -37.1939          138.17       -0.0345081         139.961
0.651                   -4.28722         177.631         -37.1933         136.486         -37.1933         136.486       -0.0349313         139.871
0.652                    -4.1897         176.391         -37.1904         134.835         -37.1905         134.835       -0.0353601          139.78
0.653                   -4.09971         175.122         -37.1851         133.215         -37.1851         133.215       -0.0357948         139.689
0.654                   -4.01687         173.825          -37.177         131.623         -37.1771         131.623       -0.0362355         139.597
0.655                   -3.94081         172.503         -37.1661         130.059         -37.1661         130.059       -0.0366824         139.505
0.656                   -3.87118         171.156         -37.1521          128.52         -37.1522          128.52       -0.0371359         139.413
0.657                   -3.80767         169.787          -37.135         127.004          -37.135         127.004       -0.0375961          139.32
0.658                   -3.74998         168.396         -37.1146         125.509         -37.1147         125.509       -0.0380632         139.227
0.659                   -3.69784         166.984         -37.0909         124.034         -37.0909         124.034       -0.0385375         139.133
0.66                      -3.651         165.551         -37.0637         122.577         -37.0637         122.577       -0.0390192         139.039
0.661                   -3.60924         164.098          -37.033         121.135         -37.0331         121.135       -0.0395086         138.945
0.662                   -3.57236         162.625         -36.9988         119.708         -36.9988         119.708       -0.0400058          138.85
0.663                   -3.54016         161.131          -36.961         118.293          -36.961         118.293        -0.040511         138.755
0.664                   -3.51248         159.618         -36.9196         116.889         -36.9196         116.889       -0.0410246         138.659
0.665                   -3.48917         158.083         -36.8745         115.494         -36.8745         115.494       -0.0415468         138.563
0.666                   -3.47011         156.528         -36.8259         114.107         -36.8259         114.107       -0.0420778         138.466
0.667                   -3.45518         154.952         -36.7736         112.725         -36.7736         112.725       -0.0426178         138.369
0.668                   -3.44428         153.354         -36.7177         111.349         -36.7177         111.349       -0.0431672         138.271
0.669                   -3.43733         151.734         -36.6583         109.975         -36.6583         109.975       -0.0437261         138.173
0.67                    -3.43426          150.09         -36.5953         108.603         -36.5953         108.603       -0.0442949         138.074
0.671                   -3.43502         148.423         -36.5288         107.231         -36.5288         107.231       -0.0448738         137.975
0.672                   -3.43956         146.731         -36.4589         105.858         -36.4588         105.858       -0.0454631         137.876
0.673                   -3.44786         145.013         -36.3856         104.482         -36.3855         104.482       -0.0460631         137.776
0.674                   -3.45989         143.269         -36.3089         103.103         -36.3089         103.102        -0.046674         137.675
0.675                   -3.47565         141.497         -36.2291         101.718          -36.229         101.718       -0.0472962         137.574
0.676                   -3.49516         139.697          -36.146         100.327          -36.146         100.327         -0.04793         137.472
0.677                   -3.51842         137.866         -36.0599         98.9286         -36.0599         98.9284       -0.0485757          137.37
0.678                   -3.54546         136.005         -35.9708         97.5214         -35.9708         97.5212       -0.0492336         137.267
0.679                   -3.57633         134.112         -35.8789         96.1043         -35.8789         96.1041       -0.0499041         137.164
0.68                    -3.61107         132.185         -35.7842         94.6762         -35.7841          94.676       -0.0505875          137.06
0.681                   -3.64975         130.223         -35.6868         93.2362         -35.6868         93.2359       -0.0512842         136.956
0.682                   -3.69242         128.225         -35.5869          91.783         -35.5869         91.7827       -0.0519945          136.85
0.683                   -3.73916         126.189         -35.4847         90.3158         -35.4846         90.3155       -0.0527189         136.745
0.684                   -3.79008         124.113         -35.3801         88.8335         -35.3801         88.8333       -0.0534576         136.638
0.685                   -3.84525         121.996         -35.2735         87.3354         -35.2735         87.3351       -0.0542112         136.532
0.686                   -3.90478         119.836          -35.165         85.8204          -35.165         85.8201       -0.0549801         136.424
0.687                   -3.96879         117.631         -35.0547         84.2879         -35.0546         84.2876       -0.0557646         136.316
0.688                   -4.03738          115.38         -34.9427          82.737         -34.9427         82.7367       -0.0565653         136.207
0.689                   -4.11069         113.079         -34.8294          81.167         -34.8294         81.1667       -0.0573826         136.097
0.69                    -4.18884         110.728         -34.7148         79.5773         -34.7148          79.577       -0.0582169         135.987
0.691                   -4.27197         108.324         -34.5991         77.9674         -34.5991          77.967       -0.0590688         135.876
0.692                   -4.36021         105.864         -34.4827         76.3366         -34.4826         76.3363       -0.0599388         135.765
0.693                    -4.4537         103.346         -34.3655         74.6846         -34.3655         74.6843       -0.0608274         135.653
0.694                   -4.55256         100.768         -34.2479          73.011         -34.2479         73.0107       -0.0617351          135.54
0.695                   -4.65693         98.1274         -34.1302         71.3156         -34.1302         71.3152       -0.0626626         135.426
0.696                   -4.76695         95.4206         -34.0124         69.5981         -34.0124         69.5977       -0.0636104         135.311