! TOUCHSTONE file generated by CST MICROWAVE STUDIO
! Date and time: Sat Nov 14 20:38:40 2020
! Project name: Scenario_1_Planar_Body_Tissue_Out_of_Line_v2.cst
! Parameters = {dy1=-69.2; L_HA=400; Ltissue=700; MT=2.54; Rad_Dielectric=30; Rad_Lower=7.3; Rad_Upper=30; Wtissue=700; a_HA=580; a_WG=246; b_HA=500; b_WG=121; c_HA=0; c_WG=187; d_feed=85; dx1=173; h_feed=15; h_lower=18; h_upper=40; hfat=3; hgap=25; hmuscle=50; hskin=1.5}
! Header version: 2018
! Port assignment regex: !\s*Touchstone port\s*([0-9]+)\s*=\s*(CST MWS port|CST DS port)\s*([0-9]+|Zmin|Zmax)\s*\(\"(.*)\"\)(\s*mode\s*([0-9]+))?.*
! Touchstone port assignment:
! Touchstone port 1 = CST MWS port 1 ("")
! Touchstone port 2 = CST MWS port 2 ("")
# GHz S DB R 50
0.5                    -0.043912        -121.746         -57.1868         131.883          -57.187         131.884      -0.00712172         151.151
0.501                 -0.0446199        -122.193         -57.0164         131.255         -57.0166         131.257      -0.00717023         151.086
0.502                 -0.0453957        -122.643         -56.8438         130.625         -56.8441         130.627      -0.00721949         151.021
0.503                 -0.0462431        -123.097          -56.669         129.993         -56.6692         129.995      -0.00726949         150.955
0.504                 -0.0471664        -123.554         -56.4919         129.359         -56.4921         129.361      -0.00732024          150.89
0.505                 -0.0481699        -124.015         -56.3124         128.722         -56.3126         128.724      -0.00737174         150.824
0.506                 -0.0492583        -124.481         -56.1305         128.083         -56.1307         128.085      -0.00742401         150.758
0.507                 -0.0504367         -124.95         -55.9462         127.441         -55.9464         127.443      -0.00747704         150.693
0.508                 -0.0517104        -125.423         -55.7594         126.797         -55.7596         126.798      -0.00753085         150.627
0.509                 -0.0530855          -125.9         -55.5701         126.148         -55.5703          126.15      -0.00758544         150.561
0.51                   -0.054568        -126.382         -55.3782         125.497         -55.3784         125.499      -0.00764081         150.495
0.511                 -0.0561649        -126.868         -55.1837         124.842         -55.1839         124.844      -0.00769698         150.429
0.512                 -0.0578835        -127.359         -54.9865         124.183         -54.9867         124.185      -0.00775394         150.362
0.513                 -0.0597316        -127.854         -54.7865          123.52         -54.7868         123.522      -0.00781172         150.296
0.514                  -0.061718        -128.355         -54.5838         122.853         -54.5841         122.855      -0.00787031          150.23
0.515                 -0.0638518         -128.86         -54.3782         122.181         -54.3785         122.183      -0.00792973         150.163
0.516                 -0.0661431         -129.37         -54.1697         121.504           -54.17         121.506      -0.00798998         150.097
0.517                 -0.0686029        -129.886         -53.9582         120.822         -53.9585         120.824      -0.00805108          150.03
0.518                 -0.0712431        -130.407         -53.7437         120.134         -53.7439         120.136      -0.00811303         149.963
0.519                 -0.0740768        -130.934          -53.526          119.44         -53.5263         119.442      -0.00817586         149.897
0.52                   -0.077118        -131.466         -53.3052          118.74         -53.3054         118.742      -0.00823957          149.83
0.521                 -0.0803822        -132.005          -53.081         118.033         -53.0813         118.035      -0.00830417         149.763
0.522                 -0.0838864         -132.55         -52.8536         117.319         -52.8538          117.32      -0.00836968         149.695
0.523                 -0.0876492        -133.101         -52.6227         116.597         -52.6229         116.598      -0.00843613         149.628
0.524                 -0.0916909        -133.659         -52.3882         115.866         -52.3885         115.868      -0.00850352         149.561
0.525                 -0.0960338        -134.225         -52.1502         115.127         -52.1504         115.129      -0.00857188         149.494
0.526                  -0.100703        -134.797         -51.9084         114.378         -51.9087          114.38      -0.00864124         149.426
0.527                  -0.105724        -135.377         -51.6629         113.619         -51.6631         113.621      -0.00871161         149.359
0.528                  -0.111129        -135.965         -51.4134          112.85         -51.4137         112.851      -0.00878304         149.291
0.529                  -0.116951        -136.562         -51.1599         112.069         -51.1602          112.07      -0.00885554         149.223
0.53                   -0.123225        -137.167         -50.9023         111.275         -50.9026         111.277      -0.00892916         149.155
0.531                  -0.129993        -137.781         -50.6405         110.469         -50.6407         110.471      -0.00900393         149.087
0.532                    -0.1373        -138.404         -50.3743         109.649         -50.3745          109.65      -0.00907991         149.019
0.533                  -0.145197        -139.037         -50.1036         108.813         -50.1038         108.815      -0.00915714         148.951
0.534                   -0.15374         -139.68         -49.8283         107.961         -49.8285         107.963      -0.00923569         148.883
0.535                  -0.162993        -140.335         -49.5482         107.092         -49.5484         107.094      -0.00931562         148.814
0.536                  -0.173025            -141         -49.2632         106.205         -49.2635         106.206        -0.009397         148.746
0.537                  -0.183918        -141.678         -48.9732         105.297         -48.9734         105.299      -0.00947993         148.677
0.538                   -0.19576        -142.368          -48.678         104.368         -48.6782          104.37       -0.0095645         148.608
0.539                  -0.208652        -143.071         -48.3774         103.416         -48.3776         103.418      -0.00965083         148.539
0.54                   -0.222708        -143.788         -48.0714          102.44         -48.0715         102.441      -0.00973905          148.47
0.541                  -0.238058         -144.52         -47.7596         101.436         -47.7598         101.437      -0.00982931         148.401
0.542                  -0.254849        -145.267          -47.442         100.403         -47.4421         100.405      -0.00992178         148.332
0.543                  -0.273247         -146.03         -47.1183         99.3396         -47.1185         99.3411       -0.0100167         148.262
0.544                  -0.293443        -146.811         -46.7885          98.242         -46.7886         98.2434       -0.0101142         148.193
0.545                  -0.315656        -147.609         -46.4523         97.1077         -46.4524         97.1091       -0.0102146         148.123
0.546                  -0.340135        -148.427         -46.1095         95.9337         -46.1096          95.935       -0.0103183         148.053
0.547                  -0.367168        -149.266           -45.76         94.7165         -45.7601         94.7178       -0.0104255         147.983
0.548                  -0.397086        -150.125         -45.4036         93.4525         -45.4038         93.4537       -0.0105368         147.913
0.549                  -0.430271        -151.007         -45.0402         92.1373         -45.0403         92.1385       -0.0106525         147.843
0.55                   -0.467165        -151.913         -44.6696         90.7665         -44.6698         90.7677       -0.0107733         147.773
0.551                  -0.508282        -152.844         -44.2918          89.335         -44.2919         89.3361       -0.0108998         147.702
0.552                  -0.554217        -153.801         -43.9066         87.8371         -43.9067         87.8382       -0.0110328         147.631
0.553                  -0.605665        -154.785          -43.514         86.2667          -43.514         86.2678       -0.0111732         147.561
0.554                  -0.663435        -155.797          -43.114          84.617          -43.114          84.618       -0.0113221          147.49
0.555                  -0.728472        -156.837         -42.7067         82.8803         -42.7068         82.8813       -0.0114806         147.418
0.556                  -0.801877        -157.906         -42.2923         81.0484         -42.2924         81.0493       -0.0116501         147.347
0.557                  -0.884938        -159.004         -41.8711         79.1122         -41.8712         79.1131       -0.0118323         147.276
0.558                  -0.979155        -160.128         -41.4436         77.0617         -41.4437         77.0625       -0.0120289         147.204
0.559                   -1.08627        -161.278         -41.0104         74.8862         -41.0104         74.8869       -0.0122421         147.132
0.56                    -1.20829        -162.447         -40.5724          72.574         -40.5724         72.5747       -0.0124741          147.06
0.561                   -1.34754        -163.631         -40.1307          70.113         -40.1307         70.1136       -0.0127275         146.988
0.562                   -1.50662        -164.818         -39.6868         67.4902         -39.6868         67.4908       -0.0130049         146.916
0.563                   -1.68845        -165.995         -39.2427         64.6927         -39.2428         64.6932        -0.013309         146.843
0.564                   -1.89617        -167.142         -38.8008         61.7077         -38.8008         61.7081       -0.0136426         146.771
0.565                   -2.13303        -168.229          -38.364         58.5231         -38.3641         58.5235        -0.014008         146.698
0.566                   -2.40214         -169.22         -37.9359         55.1288          -37.936         55.1292        -0.014407         146.626
0.567                   -2.70602        -170.064         -37.5207         51.5175         -37.5207         51.5177       -0.0148401         146.553
0.568                    -3.0459        -170.696          -37.123         47.6858          -37.123          47.686       -0.0153067          146.48
0.569                   -3.42068        -171.035         -36.7483         43.6364         -36.7483         43.6366       -0.0158038         146.408
0.57                    -3.82545        -170.986         -36.4021         39.3789         -36.4021          39.379       -0.0163263         146.336
0.571                   -4.24969        -170.448         -36.0901         34.9313         -36.0901         34.9313       -0.0168661         146.264
0.572                   -4.67545        -169.324         -35.8176         30.3209         -35.8176         30.3209       -0.0174127         146.192
0.573                   -5.07644        -167.552         -35.5894         25.5837         -35.5894         25.5837       -0.0179536          146.12
0.574                    -5.4195        -165.138         -35.4089         20.7638         -35.4089         20.7638       -0.0184751         146.049
0.575                   -5.66992        -162.186         -35.2781         15.9103         -35.2781         15.9103        -0.018964         145.978
0.576                   -5.80024        -158.905         -35.1971         11.0747         -35.1971         11.0747        -0.019409         145.907
0.577                   -5.79925        -155.577         -35.1644         6.30713         -35.1644         6.30705       -0.0198019         145.836
0.578                   -5.67567        -152.483         -35.1768         1.65291         -35.1768         1.65283       -0.0201381         145.765
0.579                   -5.45416        -149.837           -35.23        -2.84979           -35.23        -2.84988        -0.020417         145.694
0.58                    -5.16652         -147.75         -35.3186        -7.17163         -35.3186        -7.17172       -0.0206418         145.623
0.581                   -4.84333        -146.241          -35.437        -11.2924          -35.437        -11.2925       -0.0208178         145.551
0.582                   -4.50904        -145.268         -35.5795        -15.2007         -35.5795        -15.2008       -0.0209522          145.48
0.583                   -4.18081        -144.754         -35.7407        -18.8924         -35.7407        -18.8925       -0.0210528         145.408
0.584                   -3.86924        -144.619         -35.9157        -22.3696         -35.9157        -22.3697       -0.0211274         145.335
0.585                   -3.58006        -144.782         -36.1002        -25.6389         -36.1002         -25.639       -0.0211831         145.263
0.586                   -3.31559        -145.178         -36.2904          -28.71         -36.2904        -28.7102       -0.0212261          145.19
0.587                   -3.07605         -145.75         -36.4832        -31.5948         -36.4832         -31.595       -0.0212617         145.116
0.588                   -2.86043        -146.455         -36.6762         -34.306         -36.6762        -34.3061       -0.0212942         145.042
0.589                   -2.66707         -147.26         -36.8672        -36.8567         -36.8672        -36.8569       -0.0213269         144.968
0.59                    -2.49401        -148.136         -37.0546        -39.2601         -37.0546        -39.2603       -0.0213623         144.894
0.591                   -2.33927        -149.066         -37.2372        -41.5287         -37.2373         -41.529       -0.0214024         144.819
0.592                   -2.20091        -150.033         -37.4141        -43.6745         -37.4142        -43.6748       -0.0214486         144.744
0.593                   -2.07714        -151.026         -37.5846        -45.7086         -37.5846        -45.7089       -0.0215018         144.669
0.594                   -1.96633        -152.038         -37.7481        -47.6413         -37.7482        -47.6416       -0.0215626         144.593
0.595                   -1.86702        -153.062         -37.9044        -49.4822         -37.9044        -49.4825       -0.0216314         144.518
0.596                   -1.77792        -154.094         -38.0532        -51.2399         -38.0532        -51.2401       -0.0217084         144.442
0.597                   -1.69789         -155.13         -38.1944        -52.9223         -38.1944        -52.9226       -0.0217937         144.365
0.598                   -1.62594        -156.168          -38.328        -54.5367          -38.328         -54.537       -0.0218873         144.289
0.599                   -1.56119        -157.207          -38.454        -56.0896          -38.454        -56.0899       -0.0219889         144.212
0.6                     -1.50287        -158.246         -38.5725         -57.587         -38.5726        -57.5872       -0.0220985         144.135
0.601                   -1.45033        -159.284         -38.6837        -59.0342         -38.6838        -59.0344        -0.022216         144.058
0.602                   -1.40296        -160.321         -38.7877        -60.4361         -38.7878        -60.4363        -0.022341         143.981
0.603                   -1.36027        -161.357         -38.8847        -61.7972         -38.8848        -61.7974       -0.0224735         143.903
0.604                    -1.3218        -162.392         -38.9749        -63.1214         -38.9749        -63.1216       -0.0226131         143.825
0.605                   -1.28717        -163.426         -39.0584        -64.4125         -39.0584        -64.4126       -0.0227598         143.747
0.606                   -1.25602         -164.46         -39.1355        -65.6737         -39.1355        -65.6738       -0.0229133         143.669
0.607                   -1.22807        -165.494         -39.2064        -66.9079         -39.2064         -66.908       -0.0230734          143.59
0.608                   -1.20303        -166.529         -39.2713         -68.118         -39.2713         -68.118         -0.02324         143.512
0.609                   -1.18068        -167.565         -39.3304        -69.3062         -39.3305        -69.3062        -0.023413         143.433
0.61                    -1.16081        -168.602          -39.384        -70.4748          -39.384        -70.4748       -0.0235922         143.354
0.611                   -1.14324        -169.642         -39.4322        -71.6258         -39.4323        -71.6257       -0.0237774         143.274
0.612                   -1.12781        -170.685         -39.4753         -72.761         -39.4754        -72.7608       -0.0239686         143.195
0.613                   -1.11438        -171.731         -39.5135        -73.8818         -39.5136        -73.8816       -0.0241656         143.115
0.614                   -1.10283        -172.781          -39.547        -74.9897          -39.547        -74.9895       -0.0243684         143.035
0.615                   -1.09304        -173.835         -39.5759        -76.0859         -39.5759        -76.0857       -0.0245768         142.955
0.616                   -1.08492        -174.895         -39.6004        -77.1716         -39.6004        -77.1713       -0.0247908         142.874
0.617                   -1.07839         -175.96         -39.6207        -78.2476         -39.6208        -78.2472       -0.0250104         142.793
0.618                   -1.07337        -177.032          -39.637        -79.3148          -39.637        -79.3144       -0.0252354         142.713
0.619                    -1.0698         -178.11         -39.6494        -80.3739         -39.6494        -80.3735       -0.0254659         142.631
0.62                    -1.06763        -179.196         -39.6581        -81.4255         -39.6581        -81.4251       -0.0257017          142.55
0.621                   -1.06681          179.71         -39.6631        -82.4703         -39.6631        -82.4699       -0.0259429         142.468
0.622                   -1.06729         178.608         -39.6646        -83.5086         -39.6646        -83.5082       -0.0261894         142.386
0.623                   -1.06906         177.496         -39.6627        -84.5409         -39.6626        -84.5405       -0.0264411         142.304
0.624                   -1.07208         176.375         -39.6574        -85.5676         -39.6574        -85.5673       -0.0266981         142.222
0.625                   -1.07633         175.243         -39.6489        -86.5891         -39.6488        -86.5887       -0.0269604         142.139
0.626                    -1.0818         174.101         -39.6371        -87.6056         -39.6371        -87.6053       -0.0272279         142.056
0.627                   -1.08847         172.946         -39.6223        -88.6176         -39.6222        -88.6173       -0.0275006         141.973
0.628                   -1.09635          171.78         -39.6043        -89.6253         -39.6042        -89.6251       -0.0277785          141.89
0.629                   -1.10544         170.601         -39.5832        -90.6291         -39.5831        -90.6289       -0.0280615         141.806
0.63                    -1.11573         169.409         -39.5591        -91.6295          -39.559        -91.6293       -0.0283497         141.722
0.631                   -1.12724         168.203         -39.5319        -92.6267         -39.5319        -92.6265        -0.028643         141.638
0.632                   -1.13998         166.982         -39.5018        -93.6212         -39.5017        -93.6211       -0.0289415         141.553
0.633                   -1.15397         165.746         -39.4686        -94.6135         -39.4685        -94.6135       -0.0292451         141.468
0.634                   -1.16924         164.494         -39.4324        -95.6041         -39.4323        -95.6041       -0.0295537         141.383
0.635                    -1.1858         163.225         -39.3932        -96.5935         -39.3932        -96.5935       -0.0298674         141.298
0.636                   -1.20369         161.939          -39.351        -97.5823          -39.351        -97.5824       -0.0301861         141.212
0.637                   -1.22295         160.635         -39.3059        -98.5712         -39.3058        -98.5712       -0.0305097         141.126
0.638                    -1.2436         159.313         -39.2578        -99.5606         -39.2577        -99.5607       -0.0308383          141.04
0.639                   -1.26571          157.97         -39.2066        -100.551         -39.2066        -100.552       -0.0311719         140.953
0.64                    -1.28931         156.608         -39.1526        -101.544         -39.1525        -101.544       -0.0315103         140.867
0.641                   -1.31445         155.224         -39.0956         -102.54         -39.0955         -102.54       -0.0318535         140.779
0.642                   -1.34121         153.818         -39.0357        -103.539         -39.0356        -103.539       -0.0322016         140.692
0.643                   -1.36963          152.39         -38.9729        -104.543         -38.9728        -104.543       -0.0325546         140.604
0.644                   -1.39978         150.937         -38.9072        -105.551         -38.9072        -105.551       -0.0329123         140.516
0.645                   -1.43174         149.461         -38.8387        -106.566         -38.8387        -106.566        -0.033275         140.427
0.646                   -1.46559         147.958         -38.7675        -107.587         -38.7674        -107.587       -0.0336426         140.339
0.647                   -1.50141         146.429         -38.6935        -108.616         -38.6935        -108.616       -0.0340152          140.25
0.648                   -1.53928         144.873         -38.6168        -109.653         -38.6168        -109.653        -0.034393          140.16
0.649                   -1.57931         143.288         -38.5376        -110.699         -38.5376        -110.699       -0.0347762          140.07
0.65                    -1.62159         141.674         -38.4558        -111.756         -38.4558        -111.756       -0.0351649          139.98
0.651                   -1.66623         140.028         -38.3716        -112.823         -38.3716        -112.823       -0.0355594         139.889
0.652                   -1.71336         138.351          -38.285        -113.902          -38.285        -113.902       -0.0359601         139.798
0.653                   -1.76307         136.641         -38.1961        -114.993         -38.1961        -114.993       -0.0363672         139.707
0.654                   -1.81552         134.897          -38.105        -116.097          -38.105        -116.097       -0.0367811         139.615
0.655                   -1.87082         133.117         -38.0118        -117.216         -38.0118        -117.216       -0.0372022         139.523
0.656                   -1.92912           131.3         -37.9167        -118.349         -37.9167        -118.349       -0.0376309         139.431
0.657                   -1.99058         129.445         -37.8197        -119.497         -37.8197        -119.497       -0.0380676         139.338
0.658                   -2.05535          127.55         -37.7209        -120.662         -37.7209        -120.662       -0.0385126         139.244
0.659                   -2.12358         125.615         -37.6206        -121.843         -37.6206        -121.843       -0.0389664          139.15
0.66                    -2.19546         123.636         -37.5187        -123.042         -37.5188        -123.042       -0.0394291         139.056
0.661                   -2.27116         121.614         -37.4156        -124.259         -37.4156        -124.259       -0.0399013         138.962
0.662                   -2.35086         119.545         -37.3113        -125.495         -37.3113        -125.495       -0.0403831         138.867
0.663                   -2.43476          117.43          -37.206        -126.749          -37.206        -126.749       -0.0408749         138.771
0.664                   -2.52306         115.264         -37.0999        -128.024         -37.0999        -128.024       -0.0413768         138.675
0.665                   -2.61595         113.048          -36.993        -129.319         -36.9931        -129.319       -0.0418892         138.579
0.666                   -2.71364         110.779         -36.8858        -130.634         -36.8858        -130.634       -0.0424121         138.482
0.667                   -2.81633         108.455         -36.7782         -131.97         -36.7782         -131.97       -0.0429457         138.385
0.668                   -2.92425         106.074         -36.6705        -133.327         -36.6705        -133.327       -0.0434903         138.287
0.669                   -3.03759         103.634         -36.5629        -134.705         -36.5629        -134.705        -0.044046         138.189
0.67                    -3.15657         101.132         -36.4557        -136.105         -36.4557        -136.105       -0.0446129          138.09
0.671                   -3.28139         98.5673         -36.3489        -137.527         -36.3489        -137.526       -0.0451913         137.991
0.672                   -3.41223         95.9363         -36.2429        -138.969          -36.243        -138.969       -0.0457812         137.891
0.673                   -3.54929         93.2367         -36.1379        -140.433         -36.1379        -140.433       -0.0463828         137.791
0.674                   -3.69272         90.4659         -36.0341        -141.918         -36.0341        -141.918       -0.0469963          137.69
0.675                   -3.84267         87.6214         -35.9317        -143.424         -35.9317        -143.424        -0.047622         137.589
0.676                   -3.99926            84.7         -35.8309         -144.95         -35.8309         -144.95       -0.0482599         137.487
0.677                   -4.16256          81.699          -35.732        -146.496          -35.732        -146.495       -0.0489103         137.385
0.678                   -4.33263         78.6151         -35.6352         -148.06         -35.6352         -148.06       -0.0495735         137.282
0.679                   -4.50943         75.4452         -35.5407        -149.643         -35.5407        -149.643       -0.0502495         137.179
0.68                    -4.69292         72.1858         -35.4487        -151.243         -35.4487        -151.243       -0.0509388         137.075
0.681                   -4.88294         68.8335         -35.3594        -152.859         -35.3594        -152.859       -0.0516415          136.97
0.682                   -5.07928         65.3847         -35.2731         -154.49         -35.2731         -154.49       -0.0523579         136.865
0.683                    -5.2816         61.8357         -35.1898        -156.135         -35.1898        -156.135       -0.0530882          136.76
0.684                   -5.48947         58.1828         -35.1099        -157.792         -35.1099        -157.792       -0.0538329         136.653
0.685                   -5.70233         54.4223         -35.0333         -159.46         -35.0333         -159.46       -0.0545922         136.547
0.686                   -5.91947         50.5507         -34.9604        -161.138         -34.9604        -161.138       -0.0553664         136.439
0.687                   -6.14003         46.5646         -34.8911        -162.823         -34.8911        -162.823       -0.0561559         136.331
0.688                   -6.36298         42.4611         -34.8256        -164.514         -34.8256        -164.514        -0.056961         136.222
0.689                   -6.58709         38.2375         -34.7641         -166.21         -34.7641         -166.21       -0.0577822         136.113
0.69                    -6.81094         33.8921         -34.7064        -167.907         -34.7064        -167.907       -0.0586197         136.003
0.691                   -7.03293          29.424         -34.6527        -169.606         -34.6527        -169.606        -0.059474         135.892
0.692                   -7.25126         24.8337          -34.603        -171.303          -34.603        -171.303       -0.0603455          135.78
0.693                   -7.46396         20.1229         -34.5573        -172.996         -34.5573        -172.996       -0.0612347         135.668
0.694                   -7.66891         15.2954         -34.5156        -174.685         -34.5156        -174.685        -0.062142         135.555
0.695                   -7.86389          10.357         -34.4777        -176.366         -34.4777        -176.366        -0.063068         135.442
0.696                   -8.04665         5.31574         -34.4437        -178.039         -34.4437        -178.039       -0.0640129         135.328