! TOUCHSTONE file generated by CST MICROWAVE STUDIO
! Date and time: Mon Nov 30 08:11:14 2020
! Project name: Scenario_1_Planar_Body_Tissue_Out_of_Line.cst
! Parameters = {dy1=69.2; L_HA=400; Ltissue=700; MT=2.54; Rad_Dielectric=30; Rad_Lower=7.3; Rad_Upper=30; Wtissue=700; a_HA=580; a_WG=246; b_HA=500; b_WG=121; c_HA=0; c_WG=187; d_feed=85; dx1=866; h_feed=15; h_lower=18; h_upper=40; hfat=3; hgap=25; hmuscle=50; hskin=1.5}
! Header version: 2018
! Port assignment regex: !\s*Touchstone port\s*([0-9]+)\s*=\s*(CST MWS port|CST DS port)\s*([0-9]+|Zmin|Zmax)\s*\(\"(.*)\"\)(\s*mode\s*([0-9]+))?.*
! Touchstone port assignment:
! Touchstone port 1 = CST MWS port 1 ("")
! Touchstone port 2 = CST MWS port 2 ("")
# GHz S DB R 50
0.5                    -0.100207        -122.139         -63.5894          105.59         -63.5889         105.595      -0.00746443         151.157
0.501                   -0.11421        -122.454         -63.5296         101.156         -63.4955         101.134      -0.00753891         151.092
0.502                  -0.127758        -122.775         -63.4586         96.7401         -63.3924         96.6974      -0.00761411         151.027
0.503                  -0.140863        -123.102         -63.3768         92.3521         -63.2803         92.2956      -0.00769002         150.961
0.504                  -0.153541        -123.436         -63.2851         88.0023         -63.1601         87.9373      -0.00776665         150.896
0.505                  -0.165805        -123.775          -63.184         83.6996         -63.0327         83.6308      -0.00784398          150.83
0.506                  -0.177671         -124.12         -63.0746         79.4524         -62.8991         79.3831      -0.00792202         150.765
0.507                   -0.18915        -124.471         -62.9578         75.2676         -62.7603         75.2006      -0.00800076         150.699
0.508                  -0.200258        -124.827         -62.8344         71.1515         -62.6174         71.0883       -0.0080802         150.634
0.509                  -0.211009        -125.189         -62.7055          67.109         -62.4711         67.0505      -0.00816033         150.568
0.51                   -0.221415        -125.555          -62.572         63.1441         -62.3225         63.0906      -0.00824116         150.502
0.511                  -0.231491        -125.927         -62.4348         59.2599         -62.1723          59.211      -0.00832267         150.436
0.512                  -0.241249        -126.305         -62.2947         55.4586         -62.0214         55.4135      -0.00840487          150.37
0.513                  -0.250704        -126.687         -62.1526         51.7416         -61.8704         51.6991      -0.00848775         150.304
0.514                  -0.259866        -127.074         -62.0093         48.1095           -61.72         48.0683      -0.00857132         150.238
0.515                  -0.268751        -127.466         -61.8652         44.5625         -61.5707          44.521      -0.00865555         150.171
0.516                   -0.27737        -127.864         -61.7212            41.1         -61.4229         41.0567      -0.00874047         150.105
0.517                  -0.285736        -128.266         -61.5775         37.7213         -61.2771         37.6746      -0.00882605         150.039
0.518                  -0.293861        -128.673         -61.4348         34.4249         -61.1335         34.3735       -0.0089123         149.972
0.519                  -0.301758        -129.084         -61.2933         31.2094         -60.9924          31.152      -0.00899922         149.905
0.52                   -0.309439        -129.501         -61.1534         28.0731          -60.854         28.0084       -0.0090868         149.839
0.521                  -0.316915        -129.923         -61.0153         25.0138         -60.7184         24.9409      -0.00917504         149.772
0.522                    -0.3242        -130.349         -60.8792         22.0295         -60.5857         21.9476      -0.00926393         149.705
0.523                  -0.331305         -130.78         -60.7452          19.118          -60.456         19.0264      -0.00935349         149.638
0.524                  -0.338242        -131.216         -60.6135         16.2771         -60.3292         16.1753       -0.0094437         149.571
0.525                  -0.345022        -131.657         -60.4841         13.5043         -60.2053         13.3921      -0.00953456         149.504
0.526                  -0.351659        -132.102         -60.3571         10.7973         -60.0843         10.6747      -0.00962608         149.437
0.527                  -0.358163        -132.553         -60.2323         8.15386         -59.9662         8.02075      -0.00971824          149.37
0.528                  -0.364547        -133.008           -60.11         5.57158         -59.8507         5.42821      -0.00981105         149.302
0.529                  -0.370823        -133.468         -59.9899          3.0482         -59.7378         2.89485      -0.00990452         149.235
0.53                   -0.377002        -133.933          -59.872        0.581432         -59.6275        0.418532      -0.00999863         149.167
0.531                  -0.383097        -134.404         -59.7562        -1.83093         -59.5194        -2.00289       -0.0100934           149.1
0.532                  -0.389121        -134.879         -59.6425        -4.19106         -59.4136        -4.37149       -0.0101888         149.032
0.533                  -0.395085        -135.359         -59.5308        -6.50107         -59.3098        -6.68934       -0.0102848         148.964
0.534                  -0.401003        -135.844         -59.4209        -8.76303          -59.208        -8.95843       -0.0103816         148.896
0.535                  -0.406886        -136.335         -59.3127        -10.9789         -59.1079        -11.1807       -0.0104789         148.828
0.536                  -0.412749         -136.83         -59.2061        -13.1507         -59.0094        -13.3582       -0.0105769          148.76
0.537                  -0.418604        -137.331         -59.1011        -15.2803         -58.9124        -15.4926       -0.0106756         148.692
0.538                  -0.424465        -137.838         -58.9973        -17.3695         -58.8167        -17.5859       -0.0107749         148.623
0.539                  -0.430347        -138.349         -58.8948        -19.4201         -58.7221        -19.6397       -0.0108749         148.555
0.54                   -0.436263        -138.866         -58.7934        -21.4337         -58.6286        -21.6559       -0.0109756         148.486
0.541                  -0.442228        -139.389          -58.693        -23.4121         -58.5359         -23.636       -0.0110769         148.418
0.542                  -0.448258        -139.917         -58.5934        -25.3569          -58.444        -25.5817       -0.0111789         148.349
0.543                  -0.454368        -140.451         -58.4946        -27.2695         -58.3526        -27.4945       -0.0112816          148.28
0.544                  -0.460575        -140.991         -58.3963        -29.1516         -58.2617         -29.376       -0.0113849         148.211
0.545                  -0.466895        -141.537         -58.2985        -31.0045         -58.1711        -31.2277        -0.011489         148.142
0.546                  -0.473347        -142.089         -58.2011        -32.8297         -58.0806         -33.051       -0.0115938         148.073
0.547                  -0.479948        -142.646         -58.1038        -34.6285         -57.9902        -34.8472       -0.0116993         148.004
0.548                  -0.486718         -143.21         -58.0067        -36.4022         -57.8997        -36.6177       -0.0118055         147.934
0.549                  -0.493677        -143.781         -57.9095        -38.1521         -57.8089        -38.3639       -0.0119125         147.865
0.55                   -0.500845        -144.357         -57.8122        -39.8796         -57.7179         -40.087       -0.0120202         147.795
0.551                  -0.508246        -144.941         -57.7146        -41.5856         -57.6263        -41.7883       -0.0121286         147.726
0.552                  -0.515901        -145.531         -57.6166        -43.2716         -57.5342        -43.4689       -0.0122379         147.656
0.553                  -0.523836        -146.128         -57.5182        -44.9385         -57.4414          -45.13       -0.0123479         147.586
0.554                  -0.532077        -146.731         -57.4191        -46.5875         -57.3478        -46.7728       -0.0124588         147.516
0.555                   -0.54065        -147.342         -57.3193        -48.2197         -57.2532        -48.3984       -0.0125705         147.446
0.556                  -0.549584         -147.96         -57.2187        -49.8362         -57.1576         -50.008        -0.012683         147.375
0.557                   -0.55891        -148.585         -57.1172        -51.4379         -57.0609        -51.6025       -0.0127965         147.305
0.558                   -0.56866        -149.218         -57.0145        -53.0261         -56.9629        -53.1831       -0.0129108         147.234
0.559                  -0.578869        -149.859         -56.9108        -54.6016         -56.8636        -54.7508        -0.013026         147.164
0.56                   -0.589573        -150.507         -56.8057        -56.1654         -56.7627        -56.3066       -0.0131422         147.093
0.561                  -0.600812        -151.164         -56.6993        -57.7186         -56.6603        -57.8516       -0.0132594         147.022
0.562                  -0.612626        -151.829         -56.5914        -59.2622         -56.5562        -59.3867       -0.0133776         146.951
0.563                  -0.625061        -152.502         -56.4819         -60.797         -56.4504        -60.9131       -0.0134969          146.88
0.564                  -0.638163        -153.183         -56.3708        -62.3242         -56.3426        -62.4317       -0.0136172         146.808
0.565                  -0.651984        -153.874         -56.2578        -63.8447         -56.2329        -63.9434       -0.0137387         146.737
0.566                  -0.666578        -154.573         -56.1429        -65.3594         -56.1211        -65.4494       -0.0138613         146.665
0.567                  -0.682004        -155.281         -56.0261        -66.8693         -56.0071        -66.9506       -0.0139851         146.593
0.568                  -0.698323        -155.999         -55.9071        -68.3756         -55.8908        -68.4482       -0.0141102         146.522
0.569                  -0.715604        -156.726          -55.786         -69.879         -55.7721         -69.943       -0.0142366          146.45
0.57                   -0.733919        -157.463         -55.6625        -71.3808          -55.651        -71.4362       -0.0143643         146.377
0.571                  -0.753344        -158.209         -55.5367         -72.882         -55.5273        -72.9288       -0.0144934         146.305
0.572                  -0.773965        -158.966         -55.4084        -74.3835         -55.4009         -74.422        -0.014624         146.233
0.573                  -0.795872        -159.733         -55.2775        -75.8865         -55.2718        -75.9168       -0.0147561          146.16
0.574                   -0.81916         -160.51         -55.1439        -77.3922         -55.1399        -77.4144       -0.0148897         146.087
0.575                  -0.843936        -161.298         -55.0076        -78.9017          -55.005        -78.9161       -0.0150251         146.014
0.576                  -0.870312        -162.096         -54.8684        -80.4161         -54.8672         -80.423       -0.0151621         145.941
0.577                   -0.89841        -162.905         -54.7263        -81.9368         -54.7263        -81.9363       -0.0153008         145.868
0.578                  -0.928362        -163.725         -54.5812        -83.4649         -54.5822        -83.4574       -0.0154415         145.795
0.579                  -0.960308        -164.556          -54.433        -85.0018         -54.4349        -84.9877        -0.015584         145.721
0.58                   -0.994402        -165.398         -54.2817         -86.549         -54.2843        -86.5284       -0.0157286         145.648
0.581                   -1.03081        -166.251         -54.1271        -88.1077         -54.1305        -88.0811       -0.0158752         145.574
0.582                    -1.0697        -167.114         -53.9693        -89.6795         -53.9732        -89.6473        -0.016024           145.5
0.583                   -1.11128        -167.988         -53.8083        -91.2659         -53.8125        -91.2285        -0.016175         145.426
0.584                   -1.15574        -168.873         -53.6438        -92.8685         -53.6484        -92.8263       -0.0163284         145.352
0.585                   -1.20331        -169.768         -53.4761        -94.4889         -53.4808        -94.4424       -0.0164842         145.277
0.586                   -1.25422        -170.672         -53.3049         -96.129         -53.3098        -96.0786       -0.0166424         145.202
0.587                   -1.30872        -171.586         -53.1304        -97.7904         -53.1353        -97.7366       -0.0168033         145.128
0.588                   -1.36708        -172.508         -52.9525        -99.4751         -52.9573        -99.4184       -0.0169668         145.053
0.589                   -1.42958        -173.437         -52.7714        -101.185          -52.776        -101.126       -0.0171332         144.977
0.59                    -1.49653        -174.373         -52.5869        -102.922         -52.5914        -102.861       -0.0173024         144.902
0.591                   -1.56823        -175.314         -52.3994        -104.688         -52.4035        -104.625       -0.0174745         144.827
0.592                   -1.64502        -176.258         -52.2087        -106.485         -52.2126        -106.422       -0.0176497         144.751
0.593                   -1.72724        -177.203         -52.0151        -108.316         -52.0186        -108.252        -0.017828         144.675
0.594                   -1.81522        -178.148         -51.8188        -110.182         -51.8219        -110.118       -0.0180095         144.599
0.595                   -1.90932        -179.088         -51.6198        -112.085         -51.6225        -112.023       -0.0181944         144.523
0.596                   -2.00987         179.979         -51.4185        -114.029         -51.4208        -113.967       -0.0183826         144.447
0.597                   -2.11721         179.056         -51.2152        -116.014          -51.217        -115.954       -0.0185742          144.37
0.598                   -2.23164         178.149           -51.01        -118.044         -51.0115        -117.986       -0.0187694         144.293
0.599                   -2.35341         177.263         -50.8035        -120.119         -50.8045        -120.064       -0.0189682         144.216
0.6                     -2.48273         176.402         -50.5959        -122.242         -50.5965         -122.19       -0.0191706         144.139
0.601                   -2.61972         175.574         -50.3877        -124.415          -50.388        -124.366       -0.0193767         144.062
0.602                   -2.76438         174.786         -50.1794        -126.639         -50.1794        -126.593       -0.0195865         143.984
0.603                    -2.9166         174.046         -49.9716        -128.916         -49.9713        -128.874       -0.0198001         143.906
0.604                   -3.07608         173.362         -49.7648        -131.246         -49.7642        -131.207       -0.0200176         143.829
0.605                    -3.2423         172.744         -49.5596        -133.629         -49.5588        -133.595       -0.0202388          143.75
0.606                   -3.41449         172.201         -49.3567        -136.068         -49.3557        -136.038       -0.0204639         143.672
0.607                   -3.59159         171.743         -49.1567         -138.56         -49.1557        -138.534       -0.0206929         143.594
0.608                   -3.77222         171.379         -48.9604        -141.105         -48.9594        -141.084       -0.0209257         143.515
0.609                   -3.95461         171.118         -48.7686        -143.703         -48.7675        -143.685       -0.0211624         143.436
0.61                    -4.13664         170.968         -48.5818         -146.35         -48.5808        -146.336       -0.0214028         143.357
0.611                   -4.31582         170.933         -48.4008        -149.045            -48.4        -149.034       -0.0216471         143.277
0.612                   -4.48934         171.016         -48.2264        -151.784         -48.2257        -151.777       -0.0218951         143.198
0.613                   -4.65414         171.216         -48.0591        -154.564         -48.0586        -154.559       -0.0221468         143.118
0.614                   -4.80704         171.528         -47.8996         -157.38         -47.8993        -157.378       -0.0224022         143.038
0.615                   -4.94488         171.943         -47.7482        -160.227         -47.7482        -160.227       -0.0226613         142.958
0.616                   -5.06474         172.445         -47.6056          -163.1         -47.6057        -163.102       -0.0229239         142.878
0.617                   -5.16409         173.016         -47.4718        -165.993         -47.4722        -165.996         -0.02319         142.797
0.618                   -5.24102         173.635         -47.3473        -168.899         -47.3478        -168.903       -0.0234597         142.716
0.619                   -5.29439         174.274          -47.232        -171.814         -47.2327        -171.818       -0.0237327         142.635
0.62                    -5.32386         174.909         -47.1259        -174.729         -47.1268        -174.734       -0.0240091         142.554
0.621                   -5.32997         175.513         -47.0289         -177.64         -47.0299        -177.645       -0.0242889         142.472
0.622                   -5.31402         176.063         -46.9406          179.46         -46.9417         179.455       -0.0245719          142.39
0.623                   -5.27798         176.538         -46.8608         176.576          -46.862         176.572       -0.0248582         142.308
0.624                    -5.2243          176.92          -46.789         173.713         -46.7901          173.71       -0.0251478         142.226
0.625                   -5.15569         177.198         -46.7245         170.877         -46.7256         170.875       -0.0254406         142.143
0.626                   -5.07503         177.361         -46.6668         168.071         -46.6678         168.069       -0.0257366         142.061
0.627                   -4.98513         177.406         -46.6151         165.299         -46.6161         165.297       -0.0260359         141.977
0.628                   -4.88864         177.332         -46.5689         162.563         -46.5698         162.562       -0.0263384         141.894
0.629                     -4.788         177.139         -46.5274         159.866          -46.528         159.865       -0.0266442         141.811
0.63                    -4.68535         176.832         -46.4898         157.209         -46.4903         157.208       -0.0269534         141.727
0.631                   -4.58253         176.415         -46.4553         154.593         -46.4557         154.592       -0.0272659         141.643
0.632                   -4.48111         175.894         -46.4234         152.018         -46.4236         152.018       -0.0275819         141.558
0.633                   -4.38236         175.276         -46.3934         149.485         -46.3933         149.485       -0.0279015         141.473
0.634                    -4.2873         174.568         -46.3645         146.992         -46.3642         146.992       -0.0282247         141.389
0.635                   -4.19674         173.775         -46.3361          144.54         -46.3357         144.539       -0.0285516         141.303
0.636                   -4.11133         172.904         -46.3078         142.126         -46.3073         142.125       -0.0288825         141.218
0.637                   -4.03151         171.962          -46.279         139.749         -46.2783         139.748       -0.0292173         141.132
0.638                   -3.95766         170.952         -46.2493         137.408         -46.2484         137.406       -0.0295563         141.046
0.639                      -3.89         169.881         -46.2181           135.1         -46.2172         135.097       -0.0298996         140.959
0.64                    -3.82872         168.752         -46.1852         132.823         -46.1842         132.819       -0.0302474         140.872
0.641                   -3.77393         167.569         -46.1502         130.574         -46.1491          130.57       -0.0305997         140.785
0.642                   -3.72569         166.336         -46.1128         128.353         -46.1117         128.348       -0.0309569         140.698
0.643                   -3.68406         165.056         -46.0728         126.155         -46.0717          126.15       -0.0313191          140.61
0.644                   -3.64905          163.73           -46.03         123.979         -46.0289         123.974       -0.0316865         140.522
0.645                   -3.62068         162.362         -45.9843         121.823         -45.9831         121.817       -0.0320592         140.434
0.646                   -3.59897         160.952         -45.9354         119.683         -45.9343         119.677       -0.0324375         140.345
0.647                   -3.58394         159.502         -45.8833         117.559         -45.8822         117.552       -0.0328215         140.256
0.648                   -3.57562         158.014         -45.8279         115.446         -45.8269         115.439       -0.0332116         140.166
0.649                   -3.57405         156.487         -45.7692         113.343         -45.7683         113.336       -0.0336078         140.076
0.65                    -3.57931         154.923         -45.7072         111.248         -45.7063         111.241       -0.0340103         139.986
0.651                   -3.59148         153.321         -45.6418         109.159         -45.6411         109.152       -0.0344195         139.896
0.652                   -3.61066         151.683         -45.5732         107.072         -45.5726         107.066       -0.0348355         139.805
0.653                     -3.637         150.007         -45.5014         104.987         -45.5008         104.981       -0.0352585         139.713
0.654                   -3.67066         148.295         -45.4264         102.902          -45.426         102.896       -0.0356887         139.622
0.655                   -3.71185         146.544         -45.3484         100.813         -45.3481         100.808       -0.0361263          139.53
0.656                   -3.76079         144.756         -45.2675         98.7204         -45.2672         98.7155       -0.0365716         139.437
0.657                   -3.81776         142.929         -45.1839         96.6212         -45.1837          96.617       -0.0370247         139.344
0.658                   -3.88306         141.062         -45.0976         94.5139         -45.0974         94.5106       -0.0374859         139.251
0.659                   -3.95705         139.156         -45.0088         92.3971         -45.0088         92.3946       -0.0379554         139.157
0.66                    -4.04011         137.209         -44.9179         90.2692         -44.9179         90.2676       -0.0384333         139.063
0.661                   -4.13268          135.22         -44.8249         88.1288         -44.8249          88.128         -0.03892         138.969
0.662                   -4.23526         133.189         -44.7301         85.9745         -44.7301         85.9747       -0.0394156         138.874
0.663                   -4.34839         131.114         -44.6337         83.8051         -44.6338         83.8063       -0.0399203         138.778
0.664                   -4.47268         128.994          -44.536         81.6196         -44.5361         81.6218       -0.0404344         138.683
0.665                   -4.60878         126.829         -44.4373          79.417         -44.4373         79.4201        -0.040958         138.586
0.666                   -4.75742         124.617         -44.3378         77.1965         -44.3378         77.2005       -0.0414915          138.49
0.667                   -4.91943         122.357         -44.2378         74.9574         -44.2378         74.9623       -0.0420349         138.392
0.668                   -5.09567         120.048         -44.1377         72.6992         -44.1376         72.7049       -0.0425886         138.295
0.669                   -5.28712         117.689         -44.0377         70.4215         -44.0376         70.4279       -0.0431527         138.197
0.67                    -5.49485         115.279         -43.9382         68.1242          -43.938         68.1312       -0.0437275         138.098
0.671                   -5.72002         112.817         -43.8396         65.8072         -43.8393         65.8148       -0.0443132         137.999
0.672                   -5.96394         110.301          -43.742         63.4707         -43.7417         63.4788         -0.04491         137.899
0.673                   -6.22802          107.73          -43.646         61.1152         -43.6456         61.1237       -0.0455182         137.799
0.674                   -6.51384         105.102         -43.5518         58.7413         -43.5513         58.7501       -0.0461381         137.699
0.675                   -6.82315         102.417         -43.4598         56.3498         -43.4592         56.3587       -0.0467699         137.598
0.676                   -7.15788          99.671         -43.3702         53.9417         -43.3695         53.9507       -0.0474137         137.496
0.677                   -7.52021         96.8632         -43.2834         51.5184         -43.2826         51.5273         -0.04807         137.394
0.678                   -7.91261         93.9903         -43.1997         49.0812         -43.1988           49.09       -0.0487389         137.291
0.679                   -8.33785         91.0488         -43.1193          46.632         -43.1184         46.6406       -0.0494208         137.188
0.68                    -8.79911          88.034         -43.0426         44.1726         -43.0416         44.1808       -0.0501158         137.084
0.681                    -9.3001           84.94         -42.9697          41.705         -42.9686         41.7128       -0.0508244          136.98
0.682                    -9.8451         81.7587         -42.9008         39.2316         -42.8997         39.2389       -0.0515467         136.875
0.683                   -10.4392         78.4791         -42.8361         36.7547         -42.8349         36.7615       -0.0522832         136.769
0.684                   -11.0885         75.0864         -42.7758         34.2768         -42.7746          34.283       -0.0530341         136.663
0.685                   -11.8005         71.5596         -42.7198         31.8007         -42.7186         31.8063       -0.0537997         136.556
0.686                   -12.5842         67.8692         -42.6683         29.3289         -42.6671         29.3338       -0.0545804         136.449
0.687                   -13.4511         63.9729         -42.6212         26.8641           -42.62         26.8684       -0.0553765         136.341
0.688                   -14.4158         59.8078         -42.5786         24.4092         -42.5774         24.4128       -0.0561883         136.232
0.689                   -15.4973         55.2782         -42.5403         21.9667         -42.5392         21.9697       -0.0570164         136.123
0.69                    -16.7205          50.233         -42.5062         19.5393         -42.5051         19.5418       -0.0578609         136.013
0.691                   -18.1179         44.4229         -42.4762         17.1296         -42.4752         17.1315       -0.0587223         135.902
0.692                   -19.7311         37.4137           -42.45         14.7399          -42.449         14.7413       -0.0596011         135.791
0.693                   -21.6058         28.4065         -42.4274         12.3726         -42.4266         12.3735       -0.0604976         135.679
0.694                   -23.7561         15.8713         -42.4082         10.0296         -42.4074         10.0302       -0.0614123         135.566
0.695                   -26.0071        -2.92686         -42.3921         7.71303         -42.3914         7.71327       -0.0623457         135.453
0.696                   -27.5637        -30.4716         -42.3788         5.42445         -42.3781         5.42442       -0.0632981         135.339