! TOUCHSTONE file generated by CST MICROWAVE STUDIO
! Date and time: Thu Feb 11 19:34:28 2021
! Project name: Scenario_1_Planar_Body_Tissue_Out_of_Line.cst
! Parameters = {L_HA=400; Ltissue=1000; MT=2.54; Rad_Dielectric=30; Rad_Lower=7.3; Rad_Upper=30; Wtissue=1000; a_HA=580; a_WG=246; b_HA=500; b_WG=121; c_HA=0; c_WG=187; d_feed=85; dx1=346; dy1=86.5; h_feed=15; h_lower=18; h_upper=40; hfat=3; hgap=25; hmuscle=50; hskin=1.5}
! Header version: 2018
! Port assignment regex: !\s*Touchstone port\s*([0-9]+)\s*=\s*(CST MWS port|CST DS port)\s*([0-9]+|Zmin|Zmax)\s*\(\"(.*)\"\)(\s*mode\s*([0-9]+))?.*
! Touchstone port assignment:
! Touchstone port 1 = CST MWS port 1 ("")
! Touchstone port 2 = CST MWS port 2 ("")
# GHz S DB R 50
0.5                    -0.271854        -121.515         -55.5768         33.9312         -55.5765         33.9309      -0.00804864         151.145
0.501                  -0.272747        -121.914         -55.7234         32.5255         -55.7229         32.5222      -0.00810794          151.08
0.502                  -0.273667        -122.315         -55.8624         31.0482         -55.8618         31.0423       -0.0081678         151.015
0.503                  -0.274616        -122.719          -55.993         29.5027         -55.9921         29.4944      -0.00822821          150.95
0.504                  -0.275595        -123.126         -56.1144         27.8927         -56.1132         27.8825      -0.00828918         150.885
0.505                  -0.276605        -123.535         -56.2257         26.2229         -56.2242         26.2109      -0.00835073         150.819
0.506                  -0.277647        -123.946         -56.3263         24.4984         -56.3245          24.485      -0.00841285         150.754
0.507                  -0.278723        -124.361         -56.4155         22.7247         -56.4134         22.7104      -0.00847556         150.688
0.508                  -0.279835        -124.778         -56.4928          20.908         -56.4904          20.893      -0.00853885         150.623
0.509                  -0.280984        -125.197         -56.5579         19.0547         -56.5552         19.0394      -0.00860274         150.557
0.51                   -0.282171         -125.62         -56.6104         17.1716         -56.6074         17.1563      -0.00866723         150.491
0.511                  -0.283398        -126.045         -56.6502         15.2654         -56.6469         15.2504      -0.00873232         150.425
0.512                  -0.284668        -126.473         -56.6772         13.3429         -56.6737         13.3285      -0.00879803          150.36
0.513                  -0.285983        -126.904         -56.6915         11.4109         -56.6878         11.3972      -0.00886436         150.294
0.514                  -0.287343        -127.338         -56.6933         9.47567         -56.6894         9.46307      -0.00893132         150.227
0.515                  -0.288752        -127.775         -56.6829         7.54347         -56.6788         7.53203      -0.00899891         150.161
0.516                  -0.290212        -128.215         -56.6607         5.61994         -56.6564         5.60977      -0.00906715         150.095
0.517                  -0.291725        -128.659          -56.627         3.71024         -56.6227         3.70144      -0.00913603         150.029
0.518                  -0.293294        -129.105         -56.5826         1.81902         -56.5782         1.81163      -0.00920556         149.962
0.519                  -0.294922        -129.555         -56.5279       -0.049682         -56.5234      -0.0556399      -0.00927576         149.896
0.52                   -0.296611        -130.008         -56.4635        -1.89241         -56.4591        -1.89694      -0.00934663         149.829
0.521                  -0.298365        -130.464         -56.3901        -3.70629         -56.3858        -3.70945      -0.00941818         149.762
0.522                  -0.300186        -130.924         -56.3084        -5.48905         -56.3041        -5.49088       -0.0094904         149.695
0.523                  -0.302079        -131.387          -56.219        -7.23894         -56.2148        -7.23951      -0.00956332         149.629
0.524                  -0.304047        -131.854         -56.1226        -8.95471         -56.1185        -8.95412      -0.00963694         149.562
0.525                  -0.306093        -132.325         -56.0197        -10.6356         -56.0157        -10.6339      -0.00971127         149.495
0.526                  -0.308221        -132.799         -55.9109        -12.2812         -55.9071        -12.2786      -0.00978632         149.427
0.527                  -0.310437        -133.277         -55.7969        -13.8916         -55.7932        -13.8882      -0.00986208          149.36
0.528                  -0.312743        -133.759         -55.6781        -15.4671         -55.6746        -15.4629      -0.00993858         149.293
0.529                  -0.315146        -134.245          -55.555        -17.0082         -55.5516        -17.0034       -0.0100158         149.225
0.53                    -0.31765        -134.735         -55.4281        -18.5158         -55.4249        -18.5104       -0.0100938         149.158
0.531                  -0.320261        -135.229         -55.2977        -19.9909         -55.2947         -19.985       -0.0101725          149.09
0.532                  -0.322984        -135.727         -55.1643        -21.4345         -55.1615        -21.4284       -0.0102521         149.022
0.533                  -0.325825         -136.23         -55.0282         -22.848         -55.0256        -22.8416       -0.0103323         148.954
0.534                   -0.32879        -136.736         -54.8897        -24.2327         -54.8873        -24.2262       -0.0104134         148.886
0.535                  -0.331887        -137.248         -54.7491          -25.59         -54.7468        -25.5834       -0.0104953         148.818
0.536                  -0.335122        -137.764         -54.6066        -26.9213         -54.6045        -26.9147       -0.0105779          148.75
0.537                  -0.338503        -138.284         -54.4624        -28.2281         -54.4604        -28.2215       -0.0106614         148.682
0.538                  -0.342039         -138.81         -54.3166        -29.5118         -54.3148        -29.5053       -0.0107457         148.614
0.539                  -0.345737         -139.34         -54.1695        -30.7739         -54.1679        -30.7676       -0.0108308         148.545
0.54                   -0.349606        -139.875         -54.0213        -32.0158         -54.0198        -32.0097       -0.0109167         148.477
0.541                  -0.353657        -140.415         -53.8719         -33.239         -53.8705        -33.2331       -0.0110036         148.408
0.542                  -0.357899        -140.961         -53.7215        -34.4447         -53.7203        -34.4391       -0.0110912         148.339
0.543                  -0.362344        -141.512         -53.5701        -35.6344         -53.5691        -35.6291       -0.0111798          148.27
0.544                  -0.367003        -142.068         -53.4179        -36.8093          -53.417        -36.8043       -0.0112692         148.201
0.545                  -0.371888         -142.63         -53.2649        -37.9708         -53.2641        -37.9661       -0.0113595         148.132
0.546                  -0.377013        -143.198         -53.1111        -39.1199         -53.1104        -39.1156       -0.0114507         148.063
0.547                  -0.382391        -143.772         -52.9566         -40.258         -52.9559        -40.2541       -0.0115428         147.994
0.548                  -0.388037        -144.352         -52.8013        -41.3862         -52.8007        -41.3826       -0.0116359         147.924
0.549                  -0.393968        -144.937         -52.6452        -42.5054         -52.6447        -42.5022       -0.0117299         147.855
0.55                   -0.400199         -145.53         -52.4884        -43.6169          -52.488        -43.6141       -0.0118248         147.785
0.551                  -0.406749        -146.128         -52.3309        -44.7216         -52.3306        -44.7192       -0.0119207         147.715
0.552                  -0.413638        -146.734         -52.1725        -45.8205         -52.1723        -45.8185       -0.0120176         147.645
0.553                  -0.420885        -147.346         -52.0134        -46.9146         -52.0133        -46.9129       -0.0121155         147.575
0.554                  -0.428513        -147.965         -51.8535        -48.0047         -51.8534        -48.0034       -0.0122144         147.505
0.555                  -0.436545        -148.591         -51.6927        -49.0918         -51.6927        -49.0909       -0.0123142         147.435
0.556                  -0.445006        -149.225         -51.5311        -50.1767         -51.5311        -50.1761       -0.0124152         147.364
0.557                  -0.453923        -149.866         -51.3685        -51.2603         -51.3686          -51.26       -0.0125171         147.294
0.558                  -0.463325        -150.516         -51.2049        -52.3434          -51.205        -52.3434       -0.0126201         147.223
0.559                  -0.473241        -151.173         -51.0404        -53.4267         -51.0405        -53.4271       -0.0127242         147.152
0.56                   -0.483706        -151.838         -50.8748        -54.5111          -50.875        -54.5117       -0.0128294         147.081
0.561                  -0.494754        -152.512         -50.7081        -55.5973         -50.7083        -55.5981       -0.0129357          147.01
0.562                  -0.506423        -153.194         -50.5402         -56.686         -50.5405        -56.6871       -0.0130431         146.939
0.563                  -0.518753        -153.885         -50.3712        -57.7779         -50.3714        -57.7793       -0.0131517         146.868
0.564                  -0.531789        -154.585         -50.2009        -58.8739         -50.2012        -58.8755       -0.0132614         146.796
0.565                  -0.545576        -155.295         -50.0293        -59.9746         -50.0296        -59.9763       -0.0133723         146.725
0.566                  -0.560165        -156.014         -49.8563        -61.0807         -49.8567        -61.0826       -0.0134845         146.653
0.567                   -0.57561        -156.744          -49.682        -62.1929         -49.6823         -62.195       -0.0135978         146.581
0.568                  -0.591969        -157.483         -49.5062         -63.312         -49.5065        -63.3143       -0.0137124         146.509
0.569                  -0.609303        -158.233         -49.3288        -64.4387         -49.3292        -64.4411       -0.0138282         146.437
0.57                   -0.627682        -158.993           -49.15        -65.5736         -49.1503        -65.5761       -0.0139454         146.365
0.571                  -0.647176        -159.765         -48.9695        -66.7175         -48.9698        -66.7201       -0.0140639         146.292
0.572                  -0.667864        -160.548         -48.7873        -67.8712         -48.7876        -67.8739       -0.0141837          146.22
0.573                   -0.68983        -161.342         -48.6034        -69.0354         -48.6038        -69.0381       -0.0143049         146.147
0.574                  -0.713165        -162.148         -48.4178        -70.2108         -48.4181        -70.2136       -0.0144275         146.074
0.575                  -0.737967        -162.966         -48.2303        -71.3983         -48.2307        -71.4011       -0.0145516         146.001
0.576                  -0.764341        -163.797          -48.041        -72.5986         -48.0414        -72.6014       -0.0146772         145.928
0.577                  -0.792401        -164.641         -47.8499        -73.8125         -47.8502        -73.8153       -0.0148042         145.854
0.578                  -0.822272        -165.498         -47.6568        -75.0409         -47.6571        -75.0437       -0.0149329         145.781
0.579                  -0.854086        -166.368         -47.4617        -76.2847          -47.462        -76.2874       -0.0150632         145.707
0.58                   -0.887987        -167.251         -47.2646        -77.5447         -47.2649        -77.5474       -0.0151951         145.633
0.581                  -0.924132        -168.149         -47.0655        -78.8219         -47.0658        -78.8245       -0.0153288         145.559
0.582                  -0.962688         -169.06         -46.8644        -80.1173         -46.8647        -80.1197       -0.0154642         145.485
0.583                   -1.00384        -169.986         -46.6612        -81.4317         -46.6615        -81.4341       -0.0156015         145.411
0.584                   -1.04778        -170.926         -46.4559        -82.7663         -46.4562        -82.7686       -0.0157407         145.336
0.585                   -1.09472        -171.881         -46.2486        -84.1222         -46.2488        -84.1243       -0.0158819         145.262
0.586                    -1.1449        -172.851         -46.0391        -85.5003         -46.0394        -85.5023       -0.0160252         145.187
0.587                   -1.19857        -173.835         -45.8276         -86.902         -45.8279        -86.9038       -0.0161707         145.112
0.588                   -1.25598        -174.835         -45.6141        -88.3283         -45.6143          -88.33       -0.0163184         145.037
0.589                   -1.31744        -175.848         -45.3985        -89.7805         -45.3987        -89.7821       -0.0164685         144.961
0.59                    -1.38326        -176.876          -45.181        -91.2599         -45.1812        -91.2613       -0.0166211         144.886
0.591                   -1.45376        -177.918         -44.9615        -92.7678         -44.9617         -92.769       -0.0167764          144.81
0.592                   -1.52933        -178.974         -44.7402        -94.3056         -44.7404        -94.3066       -0.0169344         144.734
0.593                   -1.61034         179.958         -44.5172        -95.8746         -44.5173        -95.8755       -0.0170954         144.658
0.594                   -1.69722         178.878         -44.2924        -97.4764         -44.2926        -97.4771       -0.0172595         144.582
0.595                   -1.79041         177.787         -44.0662        -99.1123         -44.0663        -99.1128       -0.0174269         144.505
0.596                    -1.8904         176.687         -43.8385        -100.784         -43.8386        -100.784       -0.0175978         144.429
0.597                   -1.99768         175.579         -43.6096        -102.493         -43.6097        -102.493       -0.0177724         144.352
0.598                   -2.11281         174.466         -43.3796         -104.24         -43.3797         -104.24       -0.0179511         144.275
0.599                   -2.23634          173.35         -43.1489        -106.028         -43.1489        -106.028       -0.0181339         144.198
0.6                     -2.36887         172.234         -42.9175        -107.858         -42.9175        -107.857       -0.0183213          144.12
0.601                   -2.51102         171.122         -42.6858         -109.73         -42.6858         -109.73       -0.0185135         144.042
0.602                   -2.66343         170.018         -42.4542        -111.648         -42.4541        -111.647       -0.0187109         143.964
0.603                   -2.82674         168.927         -42.2228        -113.611         -42.2228         -113.61       -0.0189136         143.886
0.604                    -3.0016         167.856         -41.9922        -115.622         -41.9921        -115.621       -0.0191222         143.808
0.605                   -3.18865         166.811         -41.7627        -117.681         -41.7626         -117.68       -0.0193369         143.729
0.606                   -3.38848         165.801         -41.5348        -119.789         -41.5346        -119.788       -0.0195581         143.651
0.607                   -3.60164         164.835         -41.3089        -121.947         -41.3087        -121.946       -0.0197861         143.572
0.608                    -3.8286         163.924         -41.0856        -124.156         -41.0854        -124.155       -0.0200212         143.493
0.609                    -4.0697          163.08         -40.8654        -126.416         -40.8652        -126.414       -0.0202637         143.413
0.61                    -4.32509         162.318          -40.649        -128.726         -40.6487        -128.724       -0.0205139         143.334
0.611                    -4.5947         161.652         -40.4368        -131.086         -40.4366        -131.085        -0.020772         143.254
0.612                   -4.87815         161.101         -40.2296        -133.496         -40.2293        -133.494       -0.0210381         143.174
0.613                   -5.17464         160.684          -40.028        -135.953         -40.0277        -135.952       -0.0213124         143.094
0.614                   -5.48289         160.422         -39.8326        -138.457         -39.8323        -138.455       -0.0215948         143.013
0.615                   -5.80095         160.336         -39.6441        -141.004         -39.6437        -141.003       -0.0218852         142.932
0.616                   -6.12614         160.449          -39.463        -143.592         -39.4627        -143.591       -0.0221834         142.852
0.617                   -6.45485         160.782         -39.2901        -146.218         -39.2897        -146.216       -0.0224892         142.771
0.618                   -6.78247         161.355         -39.1258        -148.877         -39.1254        -148.876       -0.0228021         142.689
0.619                   -7.10332         162.183         -38.9706        -151.565         -38.9703        -151.564       -0.0231217         142.608
0.62                    -7.41066         163.276          -38.825        -154.278         -38.8247        -154.276       -0.0234474         142.526
0.621                   -7.69687         164.634         -38.6894        -157.009          -38.689        -157.008       -0.0237786         142.444
0.622                   -7.95377         166.242         -38.5639        -159.754         -38.5636        -159.753       -0.0241146         142.362
0.623                   -8.17322         168.076         -38.4488        -162.506         -38.4486        -162.506       -0.0244549          142.28
0.624                   -8.34781         170.093         -38.3442         -165.26          -38.344         -165.26       -0.0247986         142.197
0.625                   -8.47167         172.238           -38.25         -168.01         -38.2498         -168.01       -0.0251451         142.115
0.626                   -8.54121         174.446         -38.1661        -170.749         -38.1659        -170.749       -0.0254939         142.032
0.627                   -8.55557         176.645         -38.0923        -173.473         -38.0921        -173.472       -0.0258444         141.948
0.628                   -8.51671         178.768         -38.0281        -176.174          -38.028        -176.174       -0.0261961         141.865
0.629                   -8.42908        -179.246         -37.9733        -178.849         -37.9732        -178.848       -0.0265488         141.781
0.63                    -8.29898        -177.445         -37.9273         178.508         -37.9272         178.509       -0.0269021         141.698
0.631                    -8.1338        -175.864         -37.8895         175.901         -37.8895         175.902       -0.0272558         141.613
0.632                   -7.94122        -174.523         -37.8594         173.334         -37.8594         173.334       -0.0276099         141.529
0.633                   -7.72863         -173.43         -37.8362          170.81         -37.8363          170.81       -0.0279644         141.444
0.634                   -7.50271        -172.581         -37.8193         168.331         -37.8194         168.331       -0.0283193         141.359
0.635                   -7.26922        -171.968         -37.8081           165.9         -37.8082           165.9       -0.0286749         141.274
0.636                    -7.0329        -171.575         -37.8017         163.518         -37.8019         163.519       -0.0290312         141.188
0.637                   -6.79755        -171.387         -37.7996         161.187         -37.7998         161.188       -0.0293887         141.103
0.638                   -6.56609        -171.383          -37.801         158.907         -37.8012         158.908       -0.0297475         141.016
0.639                   -6.34071        -171.547         -37.8052         156.679         -37.8055         156.679       -0.0301079          140.93
0.64                    -6.12298        -171.861         -37.8117         154.501          -37.812         154.502       -0.0304703         140.843
0.641                   -5.91398        -172.308         -37.8199         152.374         -37.8202         152.375       -0.0308351         140.756
0.642                    -5.7144        -172.873          -37.829         150.298         -37.8294         150.299       -0.0312026         140.668
0.643                   -5.52463        -173.544         -37.8388          148.27         -37.8392         148.271       -0.0315731         140.581
0.644                   -5.34483        -174.308         -37.8485          146.29          -37.849         146.291        -0.031947         140.493
0.645                     -5.175        -175.155         -37.8579         144.355         -37.8583         144.357       -0.0323247         140.404
0.646                   -5.01501        -176.075         -37.8664         142.466         -37.8669         142.467       -0.0327064         140.315
0.647                   -4.86465        -177.061         -37.8737         140.619         -37.8742         140.621       -0.0330926         140.226
0.648                   -4.72364        -178.105         -37.8795         138.813         -37.8799         138.815       -0.0334834         140.137
0.649                   -4.59168        -179.202         -37.8833         137.046         -37.8838         137.048       -0.0338793         140.047
0.65                    -4.46842         179.654          -37.885         135.317         -37.8855         135.319       -0.0342805         139.956
0.651                   -4.35354         178.468         -37.8843         133.622         -37.8848         133.625       -0.0346873         139.866
0.652                   -4.24669         177.242          -37.881         131.962         -37.8815         131.964       -0.0351001         139.775
0.653                   -4.14753          175.98         -37.8748         130.332         -37.8753         130.334        -0.035519         139.683
0.654                   -4.05574         174.686         -37.8656         128.732         -37.8661         128.734       -0.0359444         139.591
0.655                   -3.97102         173.361         -37.8532         127.159         -37.8537         127.162       -0.0363764         139.499
0.656                   -3.89305         172.008         -37.8376         125.612         -37.8381         125.615       -0.0368154         139.407
0.657                   -3.82158         170.627         -37.8185         124.088          -37.819         124.091       -0.0372616         139.314
0.658                   -3.75633         169.221          -37.796         122.587         -37.7965         122.589       -0.0377153          139.22
0.659                   -3.69706         167.791         -37.7699         121.105         -37.7704         121.108       -0.0381767         139.126
0.66                    -3.64354         166.336         -37.7402         119.641         -37.7407         119.644        -0.038646         139.032
0.661                   -3.59558         164.859         -37.7068         118.194         -37.7073         118.197       -0.0391234         138.937
0.662                   -3.55297          163.36         -37.6697         116.762         -37.6702         116.765       -0.0396093         138.842
0.663                   -3.51555         161.838         -37.6289         115.342         -37.6294         115.345       -0.0401038         138.747
0.664                   -3.48315         160.295         -37.5844         113.935         -37.5848         113.937       -0.0406072         138.651
0.665                   -3.45562          158.73         -37.5362         112.536         -37.5365         112.539       -0.0411197         138.554
0.666                   -3.43285         157.143         -37.4842         111.147         -37.4846         111.149       -0.0416416         138.457
0.667                    -3.4147         155.534         -37.4286         109.764         -37.4289         109.766       -0.0421731          138.36
0.668                   -3.40108         153.904         -37.3693         108.386         -37.3696         108.388       -0.0427144         138.262
0.669                   -3.39189          152.25         -37.3064         107.012         -37.3067         107.014       -0.0432659         138.163
0.67                    -3.38706         150.574         -37.2399          105.64         -37.2402         105.643       -0.0438277         138.064
0.671                   -3.38651         148.875         -37.1699         104.269         -37.1702         104.272       -0.0444001         137.965
0.672                   -3.39019         147.151         -37.0965         102.898         -37.0967         102.901       -0.0449834         137.865
0.673                   -3.39804         145.404         -37.0197         101.526         -37.0199         101.528       -0.0455779         137.765
0.674                   -3.41004          143.63         -36.9396          100.15         -36.9398         100.152       -0.0461838         137.664
0.675                   -3.42615         141.831         -36.8563           98.77         -36.8565          98.772       -0.0468014         137.562
0.676                   -3.44635         140.005         -36.7698         97.3846           -36.77         97.3865        -0.047431          137.46
0.677                   -3.47063         138.152         -36.6804         95.9926         -36.6806         95.9943        -0.048073         137.358
0.678                     -3.499         136.269         -36.5881         94.5927         -36.5882         94.5943       -0.0487275         137.255
0.679                   -3.53146         134.356          -36.493         93.1839         -36.4931         93.1854        -0.049395         137.151
0.68                    -3.56802         132.413         -36.3952         91.7651         -36.3953         91.7664       -0.0500758         137.047
0.681                   -3.60872         130.437         -36.2949         90.3351          -36.295         90.3364       -0.0507701         136.942
0.682                   -3.65359         128.427         -36.1922         88.8931         -36.1923         88.8942       -0.0514784         136.837
0.683                   -3.70267         126.382         -36.0872          87.438         -36.0873          87.439        -0.052201          136.73
0.684                   -3.75601         124.301         -35.9801          85.969         -35.9802         85.9698       -0.0529383         136.624
0.685                   -3.81367         122.181         -35.8711          84.485         -35.8711         84.4857       -0.0536906         136.517
0.686                   -3.87571         120.021         -35.7602         82.9853         -35.7603         82.9859       -0.0544584         136.409
0.687                   -3.94222          117.82         -35.6478          81.469         -35.6478         81.4695       -0.0552421           136.3
0.688                   -4.01327         115.575         -35.5338         79.9355         -35.5339         79.9359       -0.0560421         136.191
0.689                   -4.08895         113.284         -35.4186         78.3841         -35.4187         78.3844       -0.0568589         136.081
0.69                    -4.16936         110.946         -35.3023         76.8141         -35.3024         76.8143       -0.0576928          135.97
0.691                   -4.25459         108.557         -35.1852          75.225         -35.1852         75.2251       -0.0585445         135.859
0.692                   -4.34474         106.117         -35.0673         73.6163         -35.0673         73.6164       -0.0594144         135.747
0.693                   -4.43994         103.621         -34.9489         71.9876         -34.9489         71.9876        -0.060303         135.634
0.694                   -4.54027         101.068         -34.8302         70.3386         -34.8302         70.3385       -0.0612109         135.521
0.695                   -4.64585         98.4548         -34.7114         68.6689         -34.7114         68.6688       -0.0621386         135.407
0.696                   -4.75677         95.7785         -34.5928         66.9785         -34.5928         66.9784       -0.0630868         135.292