! TOUCHSTONE file generated by CST MICROWAVE STUDIO
! Date and time: Sat Nov 14 20:39:46 2020
! Project name: Scenario_1_Planar_Body_Tissue_Out_of_Line_v2.cst
! Parameters = {dy1=-121.1; L_HA=400; Ltissue=700; MT=2.54; Rad_Dielectric=30; Rad_Lower=7.3; Rad_Upper=30; Wtissue=700; a_HA=580; a_WG=246; b_HA=500; b_WG=121; c_HA=0; c_WG=187; d_feed=85; dx1=173; h_feed=15; h_lower=18; h_upper=40; hfat=3; hgap=25; hmuscle=50; hskin=1.5}
! Header version: 2018
! Port assignment regex: !\s*Touchstone port\s*([0-9]+)\s*=\s*(CST MWS port|CST DS port)\s*([0-9]+|Zmin|Zmax)\s*\(\"(.*)\"\)(\s*mode\s*([0-9]+))?.*
! Touchstone port assignment:
! Touchstone port 1 = CST MWS port 1 ("")
! Touchstone port 2 = CST MWS port 2 ("")
# GHz S DB R 50
0.5                   -0.0453744        -121.758          -58.169         131.071         -58.1688         131.073      -0.00693916         151.153
0.501                 -0.0462923        -122.208         -57.9912         130.464          -57.991         130.465      -0.00698822         151.088
0.502                 -0.0472919        -122.661         -57.8113         129.853         -57.8112         129.854      -0.00703805         151.022
0.503                 -0.0483769        -123.118         -57.6294         129.239         -57.6292          129.24      -0.00708868         150.957
0.504                 -0.0495516        -123.578         -57.4453         128.621         -57.4452         128.623       -0.0071401         150.891
0.505                 -0.0508203        -124.042         -57.2591             128         -57.2589         128.002      -0.00719233         150.826
0.506                 -0.0521876         -124.51         -57.0706         127.376         -57.0704         127.377      -0.00724536          150.76
0.507                 -0.0536588        -124.982         -56.8798         126.748         -56.8796         126.749      -0.00729921         150.694
0.508                 -0.0552392        -125.457         -56.6867         126.115         -56.6865         126.117      -0.00735389         150.628
0.509                 -0.0569347        -125.937         -56.4912         125.479         -56.4911          125.48       -0.0074094         150.562
0.51                  -0.0587518         -126.42         -56.2933         124.838         -56.2932         124.839      -0.00746576         150.496
0.511                 -0.0606972        -126.908         -56.0929         124.192         -56.0928         124.194      -0.00752296          150.43
0.512                 -0.0627785        -127.401           -55.89         123.542         -55.8899         123.543      -0.00758104         150.364
0.513                 -0.0650037        -127.898         -55.6845         122.887         -55.6843         122.888      -0.00763998         150.298
0.514                 -0.0673815        -128.399         -55.4763         122.226         -55.4761         122.227      -0.00769981         150.231
0.515                 -0.0699213        -128.906         -55.2654          121.56         -55.2652         121.561      -0.00776053         150.165
0.516                 -0.0726334        -129.417         -55.0517         120.888         -55.0516         120.889      -0.00782215         150.098
0.517                 -0.0755291        -129.934         -54.8352         120.209          -54.835          120.21       -0.0078847         150.032
0.518                 -0.0786205        -130.455         -54.6157         119.524         -54.6156         119.525      -0.00794818         149.965
0.519                 -0.0819207        -130.983         -54.3932         118.832         -54.3931         118.833       -0.0080126         149.898
0.52                  -0.0854444        -131.515         -54.1677         118.133         -54.1676         118.134      -0.00807798         149.831
0.521                 -0.0892073        -132.054          -53.939         117.426         -53.9389         117.427      -0.00814434         149.764
0.522                 -0.0932268        -132.599         -53.7071         116.711         -53.7069         116.712      -0.00821169         149.697
0.523                 -0.0975217         -133.15         -53.4718         115.987         -53.4717         115.988      -0.00828005          149.63
0.524                  -0.102113        -133.708         -53.2332         115.255         -53.2331         115.255      -0.00834944         149.563
0.525                  -0.107023        -134.272          -52.991         114.512         -52.9909         114.513      -0.00841988         149.495
0.526                  -0.112278        -134.844         -52.7453         113.759         -52.7452          113.76       -0.0084914         149.428
0.527                  -0.117904        -135.423         -52.4958         112.996         -52.4957         112.996      -0.00856401          149.36
0.528                  -0.123934        -136.009         -52.2426         112.221         -52.2425         112.221      -0.00863775         149.293
0.529                  -0.130399        -136.604         -51.9854         111.433         -51.9854         111.434      -0.00871264         149.225
0.53                   -0.137339        -137.206         -51.7243         110.633         -51.7242         110.633      -0.00878872         149.157
0.531                  -0.144794        -137.818          -51.459         109.818         -51.4589         109.819      -0.00886603         149.089
0.532                   -0.15281        -138.438         -51.1894         108.989         -51.1893         108.989      -0.00894459         149.021
0.533                  -0.161439        -139.068         -50.9154         108.144         -50.9154         108.144      -0.00902447         148.953
0.534                  -0.170739        -139.708          -50.637         107.282         -50.6369         107.282       -0.0091057         148.884
0.535                  -0.180772        -140.358         -50.3539         106.401         -50.3538         106.402      -0.00918834         148.816
0.536                  -0.191611        -141.019          -50.066         105.502         -50.0659         105.502      -0.00927245         148.747
0.537                  -0.203335        -141.692         -49.7731         104.582         -49.7731         104.582       -0.0093581         148.679
0.538                  -0.216036        -142.376         -49.4752         103.639         -49.4752         103.639      -0.00944537          148.61
0.539                  -0.229814        -143.073         -49.1721         102.673          -49.172         102.673      -0.00953435         148.541
0.54                   -0.244783        -143.783         -48.8635         101.681         -48.8635         101.681      -0.00962514         148.472
0.541                  -0.261073        -144.507         -48.5494         100.661         -48.5494         100.661      -0.00971784         148.403
0.542                  -0.278831        -145.246         -48.2296         99.6112         -48.2296         99.6112       -0.0098126         148.334
0.543                  -0.298223            -146         -47.9039         98.5295         -47.9039         98.5295      -0.00990956         148.264
0.544                  -0.319437        -146.771         -47.5722         97.4131         -47.5722          97.413       -0.0100089         148.195
0.545                   -0.34269        -147.558         -47.2343         96.2591         -47.2343          96.259       -0.0101108         148.125
0.546                  -0.368228        -148.363           -46.89         95.0645           -46.89         95.0643       -0.0102155         148.056
0.547                  -0.396332        -149.188         -46.5392         93.8258         -46.5392         93.8256       -0.0103232         147.986
0.548                  -0.427327        -150.032         -46.1817         92.5393         -46.1818          92.539       -0.0104344         147.916
0.549                  -0.461585        -150.897         -45.8175         91.2007         -45.8176         91.2005       -0.0105492         147.846
0.55                   -0.499533        -151.784         -45.4464         89.8057         -45.4464         89.8054       -0.0106682         147.775
0.551                  -0.541667        -152.693         -45.0683          88.349         -45.0684         88.3487       -0.0107918         147.705
0.552                  -0.588557        -153.626         -44.6832         86.8252         -44.6833         86.8249       -0.0109205         147.634
0.553                  -0.640866        -154.583         -44.2911         85.2282         -44.2912         85.2279       -0.0110551         147.564
0.554                  -0.699357        -155.565         -43.8921         83.5512         -43.8922         83.5509       -0.0111963         147.493
0.555                  -0.764919        -156.571         -43.4863          81.787         -43.4865         81.7867        -0.011345         147.422
0.556                  -0.838577        -157.603          -43.074         79.9274         -43.0742         79.9271       -0.0115022         147.351
0.557                  -0.921519        -158.657         -42.6555         77.9637         -42.6557         77.9634       -0.0116691         147.279
0.558                   -1.01511        -159.734         -42.2314         75.8864         -42.2316         75.8862       -0.0118472         147.208
0.559                   -1.12093         -160.83         -41.8024         73.6853         -41.8026         73.6851        -0.012038         147.136
0.56                    -1.24077         -161.94         -41.3695         71.3497         -41.3696         71.3495       -0.0122435         147.064
0.561                   -1.37666        -163.056         -40.9337         68.8681         -40.9339          68.868       -0.0124655         146.992
0.562                   -1.53083         -164.17         -40.4969          66.229         -40.4971          66.229       -0.0127065          146.92
0.563                   -1.70576        -165.266         -40.0608         63.4208          -40.061         63.4208       -0.0129689         146.848
0.564                     -1.904        -166.325          -39.628         60.4324         -39.6282         60.4324       -0.0132551         146.775
0.565                   -2.12812        -167.321         -39.2013         57.2537         -39.2014         57.2538       -0.0135677         146.703
0.566                   -2.38042         -168.22         -38.7841         53.8769         -38.7843         53.8771       -0.0139088          146.63
0.567                   -2.66255        -168.976         -38.3805         50.2969         -38.3806         50.2971         -0.01428         146.558
0.568                   -2.97488        -169.533         -37.9948         46.5128         -37.9949          46.513       -0.0146817         146.485
0.569                    -3.3157        -169.824         -37.6319         42.5291         -37.6321         42.5294       -0.0151129         146.413
0.57                    -3.68007        -169.772         -37.2969          38.357          -37.297         38.3572       -0.0155701          146.34
0.571                   -4.05853        -169.297         -36.9947          34.015         -36.9948         34.0152       -0.0160477         146.268
0.572                   -4.43598        -168.326           -36.73         29.5296         -36.7301         29.5298       -0.0165367         146.196
0.573                   -4.79124        -166.816         -36.5067         24.9348         -36.5068         24.9349        -0.017026         146.124
0.574                   -5.09836        -164.774         -36.3277         20.2706         -36.3277         20.2706       -0.0175024         146.052
0.575                   -5.33038         -162.28         -36.1942         15.5814         -36.1943         15.5813       -0.0179525         145.981
0.576                   -5.46533        -159.489         -36.1064         10.9128         -36.1065         10.9126       -0.0183641         145.909
0.577                   -5.49234        -156.613         -36.0627         6.30903         -36.0628         6.30865       -0.0187277         145.838
0.578                   -5.41487        -153.876         -36.0602         1.80996         -36.0602         1.80942       -0.0190382         145.767
0.579                   -5.24906         -151.46         -36.0949        -2.55083          -36.095        -2.55151       -0.0192945         145.695
0.58                     -5.0183        -149.481         -36.1622        -6.74728         -36.1622         -6.7481       -0.0194998         145.624
0.581                   -4.74718         -147.98         -36.2569        -10.7613          -36.257        -10.7622       -0.0196599         145.552
0.582                   -4.45715        -146.945         -36.3741        -14.5821         -36.3742        -14.5831       -0.0197827          145.48
0.583                   -4.16456        -146.329         -36.5089        -18.2056          -36.509        -18.2067       -0.0198765         145.407
0.584                   -3.88063         -146.07         -36.6568        -21.6332         -36.6569        -21.6343       -0.0199496         145.334
0.585                   -3.61222        -146.104          -36.814        -24.8701         -36.8141        -24.8714       -0.0200091         145.261
0.586                   -3.36299        -146.373         -36.9768        -27.9249          -36.977        -27.9262       -0.0200612         145.188
0.587                   -3.13437        -146.827         -37.1426        -30.8078         -37.1428         -30.809        -0.020111         145.114
0.588                   -2.92638        -147.424         -37.3088        -33.5302          -37.309        -33.5315       -0.0201622         145.039
0.589                   -2.73817        -148.131         -37.4736        -36.1042         -37.4738        -36.1054       -0.0202178         144.965
0.59                    -2.56845        -148.921         -37.6354        -38.5416         -37.6356        -38.5427       -0.0202798          144.89
0.591                   -2.41572        -149.773         -37.7929        -40.8541         -37.7931        -40.8552       -0.0203497         144.815
0.592                   -2.27841        -150.672         -37.9453        -43.0529         -37.9456        -43.0539       -0.0204284          144.74
0.593                   -2.15502        -151.605         -38.0919        -45.1485         -38.0922        -45.1494       -0.0205166         144.664
0.594                   -2.04412        -152.564         -38.2322        -47.1507         -38.2325        -47.1515       -0.0206145         144.588
0.595                    -1.9444         -153.54         -38.3659        -49.0687         -38.3662        -49.0693       -0.0207222         144.512
0.596                   -1.85469         -154.53         -38.4928        -50.9106          -38.493        -50.9112       -0.0208397         144.436
0.597                   -1.77393        -155.529         -38.6127        -52.6842          -38.613        -52.6847        -0.020967         144.359
0.598                   -1.70118        -156.534         -38.7258        -54.3964         -38.7261        -54.3968       -0.0211038         144.282
0.599                   -1.63561        -157.543          -38.832        -56.0536         -38.8323        -56.0539       -0.0212499         144.205
0.6                     -1.57649        -158.555         -38.9315        -57.6614         -38.9318        -57.6616       -0.0214052         144.128
0.601                   -1.52317        -159.568         -39.0245        -59.2251         -39.0247        -59.2252       -0.0215694         144.051
0.602                   -1.47508        -160.583         -39.1111        -60.7493         -39.1113        -60.7492       -0.0217423         143.973
0.603                   -1.43172        -161.599         -39.1915        -62.2381         -39.1918         -62.238       -0.0219237         143.895
0.604                   -1.39266        -162.615         -39.2661        -63.6953         -39.2663        -63.6951       -0.0221133         143.817
0.605                   -1.35749        -163.632          -39.335        -65.1241         -39.3351        -65.1239       -0.0223111         143.739
0.606                   -1.32589         -164.65         -39.3984        -66.5276         -39.3986        -66.5274       -0.0225167         143.661
0.607                   -1.29755         -165.67         -39.4568        -67.9084         -39.4569        -67.9081         -0.02273         143.582
0.608                    -1.2722        -166.691         -39.5102        -69.2686         -39.5103        -69.2682       -0.0229509         143.503
0.609                   -1.24961        -167.714          -39.559        -70.6103         -39.5591        -70.6099       -0.0231792         143.424
0.61                    -1.22958        -168.739         -39.6033        -71.9351         -39.6035        -71.9347       -0.0234147         143.345
0.611                   -1.21191        -169.767         -39.6436        -73.2445         -39.6437        -73.2442       -0.0236573         143.265
0.612                   -1.19645        -170.799         -39.6799        -74.5398         -39.6799        -74.5394       -0.0239068         143.186
0.613                   -1.18306        -171.834         -39.7124        -75.8219         -39.7125        -75.8216        -0.024163         143.106
0.614                    -1.1716        -172.874         -39.7414        -77.0916         -39.7415        -77.0914       -0.0244258         143.026
0.615                   -1.16198        -173.918         -39.7671        -78.3497         -39.7672        -78.3495        -0.024695         142.945
0.616                   -1.15409        -174.968         -39.7896        -79.5967         -39.7896        -79.5966       -0.0249704         142.865
0.617                   -1.14784        -176.024         -39.8091         -80.833         -39.8091         -80.833       -0.0252518         142.784
0.618                   -1.14317        -177.086         -39.8256         -82.059         -39.8256         -82.059        -0.025539         142.703
0.619                   -1.14001        -178.155         -39.8393        -83.2748         -39.8393        -83.2749       -0.0258317         142.622
0.62                    -1.13831        -179.232         -39.8503        -84.4807         -39.8503        -84.4809       -0.0261297         142.541
0.621                     -1.138         179.683         -39.8587        -85.6769         -39.8587        -85.6771       -0.0264327         142.459
0.622                   -1.13907          178.59         -39.8645        -86.8633         -39.8645        -86.8636       -0.0267404         142.377
0.623                   -1.14147         177.487         -39.8678        -88.0402         -39.8678        -88.0406       -0.0270527         142.295
0.624                   -1.14517         176.375         -39.8686        -89.2077         -39.8686        -89.2082        -0.027369         142.213
0.625                   -1.15016         175.253         -39.8669        -90.3659         -39.8669        -90.3664       -0.0276893          142.13
0.626                   -1.15643          174.12         -39.8627        -91.5149         -39.8627        -91.5155        -0.028013         142.047
0.627                   -1.16395         172.975          -39.856         -92.655          -39.856        -92.6556       -0.0283401         141.964
0.628                   -1.17274         171.819         -39.8469        -93.7863         -39.8469         -93.787         -0.02867         141.881
0.629                   -1.18278          170.65         -39.8351        -94.9092         -39.8352        -94.9098       -0.0290027         141.798
0.63                    -1.19408         169.468         -39.8209        -96.0239         -39.8209        -96.0246       -0.0293377         141.714
0.631                   -1.20665         168.272         -39.8041        -97.1308         -39.8041        -97.1315       -0.0296749          141.63
0.632                   -1.22051         167.062         -39.7846        -98.2303         -39.7846         -98.231        -0.030014         141.546
0.633                   -1.23568         165.837         -39.7625         -99.323         -39.7625        -99.3237        -0.030355         141.461
0.634                   -1.25217         164.597         -39.7377        -100.409         -39.7378         -100.41       -0.0306976         141.376
0.635                   -1.27001          163.34         -39.7102         -101.49         -39.7103         -101.49       -0.0310418         141.291
0.636                   -1.28923         162.067         -39.6799        -102.565           -39.68        -102.566       -0.0313875         141.206
0.637                   -1.30988         160.776         -39.6469        -103.636          -39.647        -103.636       -0.0317348          141.12
0.638                   -1.33198         159.467         -39.6111        -104.703         -39.6111        -104.703       -0.0320838         141.034
0.639                   -1.35558         158.138         -39.5724        -105.766         -39.5724        -105.767       -0.0324344         140.948
0.64                    -1.38074          156.79         -39.5308        -106.828         -39.5309        -106.828        -0.032787         140.861
0.641                    -1.4075         155.422         -39.4864        -107.888         -39.4865        -107.888       -0.0331417         140.774
0.642                   -1.43592         154.032         -39.4392        -108.947         -39.4393        -108.947       -0.0334987         140.687
0.643                   -1.46606         152.621         -39.3891        -110.006         -39.3891        -110.006       -0.0338583           140.6
0.644                   -1.49799         151.186         -39.3361        -111.066         -39.3361        -111.066       -0.0342208         140.512
0.645                   -1.53179         149.728         -39.2802        -112.128         -39.2803        -112.128       -0.0345867         140.423
0.646                   -1.56753         148.245         -39.2216        -113.193         -39.2216        -113.193       -0.0349561         140.335
0.647                    -1.6053         146.736         -39.1601        -114.261         -39.1602        -114.262       -0.0353295         140.246
0.648                   -1.64518         145.202         -39.0958        -115.334         -39.0959        -115.335       -0.0357072         140.156
0.649                   -1.68726         143.639         -39.0289        -116.413         -39.0289        -116.413       -0.0360897         140.067
0.65                    -1.73166         142.049         -38.9592        -117.498         -38.9592        -117.498       -0.0364773         139.977
0.651                   -1.77847         140.428         -38.8869         -118.59         -38.8869         -118.59       -0.0368704         139.886
0.652                   -1.82782         138.778          -38.812         -119.69         -38.8121         -119.69       -0.0372694         139.795
0.653                   -1.87981         137.095         -38.7346          -120.8         -38.7347          -120.8       -0.0376747         139.704
0.654                   -1.93459          135.38         -38.6548        -121.919         -38.6549        -121.919       -0.0380866         139.612
0.655                   -1.99227         133.631         -38.5727        -123.049         -38.5727        -123.049       -0.0385055          139.52
0.656                   -2.05301         131.847         -38.4883        -124.192         -38.4884        -124.192       -0.0389317         139.428
0.657                   -2.11694         130.026         -38.4018        -125.346         -38.4018        -125.346       -0.0393655         139.335
0.658                   -2.18423         128.168         -38.3132        -126.514         -38.3133        -126.514       -0.0398074         139.242
0.659                   -2.25504          126.27         -38.2228        -127.697         -38.2228        -127.697       -0.0402576         139.148
0.66                    -2.32954         124.332         -38.1305        -128.894         -38.1305        -128.894       -0.0407164         139.054
0.661                   -2.40789         122.352         -38.0365        -130.108         -38.0365        -130.108       -0.0411841          138.96
0.662                    -2.4903         120.329         -37.9411        -131.338         -37.9411        -131.338        -0.041661         138.865
0.663                   -2.57694          118.26         -37.8442        -132.585         -37.8442        -132.585       -0.0421474         138.769
0.664                   -2.66801         116.144         -37.7462         -133.85         -37.7462         -133.85       -0.0426436         138.673
0.665                   -2.76371         113.981         -37.6471        -135.133         -37.6471        -135.133       -0.0431498         138.577
0.666                   -2.86425         111.766         -37.5472        -136.436         -37.5472        -136.436       -0.0436664          138.48
0.667                   -2.96984           109.5         -37.4466        -137.758         -37.4466        -137.758       -0.0441935         138.383
0.668                   -3.08069          107.18         -37.3455          -139.1         -37.3455          -139.1       -0.0447314         138.285
0.669                     -3.197         104.805         -37.2441        -140.462         -37.2441        -140.462       -0.0452805         138.187
0.67                      -3.319         102.371         -37.1426        -141.845         -37.1426        -141.845       -0.0458409         138.088
0.671                   -3.44688         99.8765         -37.0413        -143.248         -37.0413        -143.248        -0.046413         137.989
0.672                   -3.58085           97.32         -36.9403        -144.672         -36.9403        -144.673       -0.0469969         137.889
0.673                    -3.7211         94.6986         -36.8399        -146.118         -36.8399        -146.118        -0.047593         137.789
0.674                   -3.86781         92.0098         -36.7404        -147.583         -36.7403        -147.584       -0.0482016         137.688
0.675                   -4.02115          89.251         -36.6418         -149.07         -36.6418         -149.07       -0.0488228         137.587
0.676                   -4.18124         86.4195         -36.5446        -150.576         -36.5446        -150.577       -0.0494571         137.485
0.677                   -4.34819         83.5123         -36.4489        -152.103         -36.4488        -152.103       -0.0501047         137.383
0.678                   -4.52209         80.5264         -36.3549        -153.648         -36.3548        -153.648       -0.0507659          137.28
0.679                   -4.70297         77.4585         -36.2628        -155.212         -36.2628        -155.213       -0.0514409         137.177
0.68                    -4.89079         74.3053          -36.173        -156.794          -36.173        -156.794       -0.0521302         137.073
0.681                   -5.08548         71.0631         -36.0857        -158.392         -36.0856        -158.393        -0.052834         136.968
0.682                   -5.28688         67.7284         -36.0009        -160.006         -36.0009        -160.007       -0.0535527         136.863
0.683                   -5.49473         64.2972          -35.919        -161.635          -35.919        -161.635       -0.0542866         136.757
0.684                   -5.70869         60.7656         -35.8401        -163.277           -35.84        -163.277       -0.0550361         136.651
0.685                    -5.9283         57.1295         -35.7643         -164.93         -35.7643        -164.931       -0.0558015         136.544
0.686                   -6.15294          53.385          -35.692        -166.594          -35.692        -166.594       -0.0565832         136.436
0.687                   -6.38188         49.5279         -35.6231        -168.266         -35.6231        -168.267       -0.0573816         136.328
0.688                   -6.61418         45.5544         -35.5578        -169.946         -35.5578        -169.946       -0.0581971         136.219
0.689                   -6.84874         41.4612         -35.4962         -171.63         -35.4962         -171.63       -0.0590302         136.109
0.69                    -7.08427         37.2451         -35.4383        -173.318         -35.4384        -173.318       -0.0598812         135.999
0.691                   -7.31925         32.9038         -35.3843        -175.007         -35.3843        -175.007       -0.0607506         135.888
0.692                   -7.55197         28.4361         -35.3342        -176.696         -35.3342        -176.696       -0.0616389         135.777
0.693                   -7.78048          23.842         -35.2878        -178.382         -35.2879        -178.383       -0.0625465         135.664
0.694                    -8.0027         19.1229         -35.2454         179.935         -35.2454         179.935        -0.063474         135.551
0.695                   -8.21633         14.2825         -35.2066         178.259         -35.2067         178.259       -0.0644219         135.437
0.696                   -8.41901         9.32666         -35.1716         176.591         -35.1717         176.591       -0.0653907         135.323