! TOUCHSTONE file generated by CST MICROWAVE STUDIO
! Date and time: Thu Feb 11 19:34:46 2021
! Project name: Scenario_1_Planar_Body_Tissue_Out_of_Line.cst
! Parameters = {L_HA=400; Ltissue=1000; MT=2.54; Rad_Dielectric=30; Rad_Lower=7.3; Rad_Upper=30; Wtissue=1000; a_HA=580; a_WG=246; b_HA=500; b_WG=121; c_HA=0; c_WG=187; d_feed=85; dx1=346; dy1=121.1; h_feed=15; h_lower=18; h_upper=40; hfat=3; hgap=25; hmuscle=50; hskin=1.5}
! Header version: 2018
! Port assignment regex: !\s*Touchstone port\s*([0-9]+)\s*=\s*(CST MWS port|CST DS port)\s*([0-9]+|Zmin|Zmax)\s*\(\"(.*)\"\)(\s*mode\s*([0-9]+))?.*
! Touchstone port assignment:
! Touchstone port 1 = CST MWS port 1 ("")
! Touchstone port 2 = CST MWS port 2 ("")
# GHz S DB R 50
0.5                    -0.273315         -121.53         -55.8021         31.4359         -55.8019         31.4354      -0.00814883         151.137
0.501                  -0.275107        -121.944         -55.8055         30.4114         -55.8052         30.4109      -0.00821294         151.072
0.502                  -0.276939        -122.361         -55.8076         29.3735         -55.8074         29.3731       -0.0082773         151.007
0.503                  -0.278811        -122.779         -55.8084         28.3222         -55.8082         28.3218      -0.00834194         150.942
0.504                  -0.280725          -123.2         -55.8079         27.2573         -55.8076          27.257      -0.00840686         150.877
0.505                  -0.282682        -123.624         -55.8059         26.1789         -55.8056         26.1786      -0.00847207         150.811
0.506                  -0.284683        -124.049         -55.8024         25.0869         -55.8022         25.0865      -0.00853757         150.746
0.507                  -0.286729        -124.477         -55.7973         23.9812         -55.7971         23.9809      -0.00860339          150.68
0.508                  -0.288822        -124.908         -55.7907         22.8618         -55.7904         22.8615      -0.00866953         150.615
0.509                  -0.290961        -125.341         -55.7823         21.7287         -55.7821         21.7284        -0.008736         150.549
0.51                    -0.29315        -125.776         -55.7722         20.5819         -55.7719         20.5816      -0.00880281         150.483
0.511                  -0.295389        -126.214         -55.7602         19.4214           -55.76         19.4211      -0.00886997         150.417
0.512                  -0.297679        -126.654         -55.7463         18.2472         -55.7461          18.247       -0.0089375         150.352
0.513                  -0.300023        -127.098         -55.7305         17.0595         -55.7302         17.0593      -0.00900541         150.286
0.514                  -0.302423        -127.543         -55.7126         15.8583         -55.7124          15.858      -0.00907369         150.219
0.515                  -0.304879        -127.992         -55.6926         14.6436         -55.6924         14.6434      -0.00914238         150.153
0.516                  -0.307393        -128.443         -55.6704         13.4156         -55.6702         13.4154      -0.00921148         150.087
0.517                  -0.309969        -128.898         -55.6459         12.1744         -55.6457         12.1742        -0.009281         150.021
0.518                  -0.312607        -129.355         -55.6192         10.9201         -55.6189           10.92      -0.00935096         149.954
0.519                   -0.31531        -129.815           -55.59         9.65302         -55.5898          9.6529      -0.00942137         149.888
0.52                   -0.318081        -130.278         -55.5583         8.37323         -55.5581         8.37312      -0.00949223         149.821
0.521                  -0.320921        -130.744         -55.5241         7.08095         -55.5239         7.08087      -0.00956357         149.754
0.522                  -0.323834        -131.213         -55.4873         5.77643         -55.4871         5.77637       -0.0096354         149.687
0.523                  -0.326822        -131.685         -55.4478         4.45992         -55.4476         4.45987      -0.00970773         149.621
0.524                  -0.329888        -132.161         -55.4055         3.13167         -55.4053         3.13164      -0.00978057         149.554
0.525                  -0.333035         -132.64         -55.3605         1.79199         -55.3603         1.79198      -0.00985394         149.486
0.526                  -0.336267        -133.122         -55.3125        0.441171         -55.3123        0.441178      -0.00992786         149.419
0.527                  -0.339586        -133.608         -55.2616       -0.920452         -55.2614       -0.920428       -0.0100023         149.352
0.528                  -0.342998        -134.097         -55.2077        -2.29254         -55.2076         -2.2925       -0.0100774         149.285
0.529                  -0.346504         -134.59         -55.1508        -3.67473         -55.1506        -3.67468        -0.010153         149.217
0.53                    -0.35011        -135.086         -55.0908        -5.06666         -55.0906        -5.06659       -0.0102293          149.15
0.531                   -0.35382        -135.586         -55.0276        -6.46794         -55.0274        -6.46785       -0.0103061         149.082
0.532                  -0.357639         -136.09         -54.9612        -7.87816          -54.961        -7.87806       -0.0103836         149.014
0.533                   -0.36157        -136.598         -54.8915        -9.29692         -54.8913         -9.2968       -0.0104618         148.946
0.534                  -0.365621         -137.11         -54.8186        -10.7238         -54.8184        -10.7237       -0.0105406         148.878
0.535                  -0.369795        -137.626         -54.7423        -12.1584         -54.7422        -12.1582       -0.0106201          148.81
0.536                  -0.374099        -138.146         -54.6627        -13.6002         -54.6625        -13.6001       -0.0107003         148.742
0.537                  -0.378539         -138.67         -54.5797        -15.0489         -54.5795        -15.0487       -0.0107813         148.674
0.538                  -0.383122        -139.199         -54.4933        -16.5039         -54.4931        -16.5038        -0.010863         148.605
0.539                  -0.387854        -139.732         -54.4035         -17.965         -54.4033        -17.9648       -0.0109454         148.537
0.54                   -0.392743         -140.27         -54.3102        -19.4315           -54.31        -19.4313       -0.0110287         148.468
0.541                  -0.397797        -140.812         -54.2135        -20.9032         -54.2133         -20.903       -0.0111127         148.399
0.542                  -0.403024        -141.359         -54.1133        -22.3795         -54.1131        -22.3793       -0.0111976         148.331
0.543                  -0.408433        -141.911         -54.0096        -23.8601         -54.0095        -23.8599       -0.0112833         148.262
0.544                  -0.414034        -142.469         -53.9025        -25.3446         -53.9023        -25.3444       -0.0113699         148.193
0.545                  -0.419837        -143.031         -53.7919        -26.8326         -53.7918        -26.8324       -0.0114573         148.124
0.546                  -0.425852        -143.598         -53.6778        -28.3237         -53.6777        -28.3235       -0.0115457         148.054
0.547                  -0.432092        -144.171         -53.5604        -29.8176         -53.5603        -29.8174        -0.011635         147.985
0.548                  -0.438567        -144.749         -53.4395         -31.314         -53.4394        -31.3137       -0.0117253         147.915
0.549                  -0.445292        -145.333         -53.3151        -32.8124          -53.315        -32.8122       -0.0118166         147.846
0.55                    -0.45228        -145.923         -53.1875        -34.3128         -53.1874        -34.3125       -0.0119088         147.776
0.551                  -0.459547        -146.519         -53.0564        -35.8147         -53.0563        -35.8145       -0.0120021         147.706
0.552                  -0.467107        -147.121          -52.922         -37.318         -52.9219        -37.3178       -0.0120965         147.636
0.553                  -0.474979        -147.729         -52.7843        -38.8225         -52.7843        -38.8222       -0.0121919         147.566
0.554                   -0.48318        -148.344         -52.6434        -40.3279         -52.6433        -40.3277       -0.0122885         147.496
0.555                  -0.491731        -148.966         -52.4992        -41.8342         -52.4992         -41.834       -0.0123862         147.426
0.556                  -0.500651        -149.594         -52.3519        -43.3412         -52.3518         -43.341       -0.0124851         147.355
0.557                  -0.509963        -150.229         -52.2014        -44.8488         -52.2013        -44.8486       -0.0125852         147.284
0.558                  -0.519692        -150.872         -52.0478        -46.3571         -52.0477        -46.3568       -0.0126865         147.214
0.559                  -0.529863        -151.522         -51.8911        -47.8658          -51.891        -47.8656       -0.0127891         147.143
0.56                   -0.540504        -152.179         -51.7314        -49.3752         -51.7314         -49.375        -0.012893         147.072
0.561                  -0.551645        -152.845         -51.5687        -50.8852         -51.5687         -50.885       -0.0129983         147.001
0.562                  -0.563317        -153.519         -51.4031         -52.396         -51.4031        -52.3957       -0.0131049          146.93
0.563                  -0.575555          -154.2         -51.2347        -53.9075         -51.2346        -53.9073       -0.0132129         146.858
0.564                  -0.588397        -154.891         -51.0634        -55.4201         -51.0633        -55.4199       -0.0133224         146.787
0.565                  -0.601882         -155.59         -50.8893        -56.9339         -50.8892        -56.9337       -0.0134334         146.715
0.566                  -0.616053        -156.299         -50.7124        -58.4491         -50.7124        -58.4489       -0.0135459         146.643
0.567                  -0.630956        -157.017         -50.5329         -59.966         -50.5329        -59.9658       -0.0136599         146.571
0.568                  -0.646642        -157.744         -50.3508        -61.4848         -50.3508        -61.4846       -0.0137756         146.499
0.569                  -0.663166        -158.482         -50.1661         -63.006         -50.1661        -63.0058        -0.013893         146.427
0.57                   -0.680584        -159.229         -49.9788        -64.5299         -49.9788        -64.5297        -0.014012         146.355
0.571                  -0.698961        -159.988         -49.7891        -66.0569         -49.7891        -66.0567       -0.0141328         146.282
0.572                  -0.718366        -160.757         -49.5969        -67.5874         -49.5969        -67.5872       -0.0142554          146.21
0.573                  -0.738872        -161.537         -49.4024        -69.1219         -49.4024        -69.1218       -0.0143798         146.137
0.574                  -0.760559        -162.329         -49.2055         -70.661         -49.2055        -70.6608       -0.0145062         146.064
0.575                  -0.783515        -163.133         -49.0064        -72.2052         -49.0064         -72.205       -0.0146345         145.991
0.576                  -0.807835        -163.949         -48.8051         -73.755         -48.8051        -73.7548       -0.0147648         145.917
0.577                  -0.833621        -164.778         -48.6016         -75.311         -48.6016        -75.3109       -0.0148972         145.844
0.578                  -0.860984         -165.62          -48.396         -76.874          -48.396        -76.8739       -0.0150318         145.771
0.579                  -0.890046        -166.475         -48.1884        -78.4447         -48.1884        -78.4445       -0.0151685         145.697
0.58                   -0.920939        -167.344         -47.9788        -80.0236         -47.9788        -80.0235       -0.0153075         145.623
0.581                  -0.953806        -168.227         -47.7673        -81.6117         -47.7673        -81.6116       -0.0154488         145.549
0.582                  -0.988803        -169.124          -47.554        -83.2096          -47.554        -83.2095       -0.0155926         145.475
0.583                    -1.0261        -170.036         -47.3389        -84.8183         -47.3389        -84.8182       -0.0157388           145.4
0.584                   -1.06588        -170.963          -47.122        -86.4384         -47.1221        -86.4383       -0.0158875         145.326
0.585                   -1.10835        -171.906         -46.9036        -88.0711         -46.9037         -88.071       -0.0160389         145.251
0.586                   -1.15373        -172.864         -46.6837         -89.717         -46.6837        -89.7169        -0.016193         145.176
0.587                   -1.20225        -173.838         -46.4623        -91.3772         -46.4623        -91.3772       -0.0163499         145.101
0.588                   -1.25417        -174.828         -46.2396        -93.0527         -46.2396        -93.0526       -0.0165096         145.026
0.589                   -1.30979        -175.834         -46.0156        -94.7445         -46.0157        -94.7444       -0.0166723         144.951
0.59                    -1.36942        -176.857         -45.7905        -96.4534         -45.7906        -96.4533       -0.0168381         144.875
0.591                   -1.43337        -177.896         -45.5644        -98.1807         -45.5645        -98.1806        -0.017007         144.799
0.592                   -1.50204        -178.951         -45.3375        -99.9273         -45.3375        -99.9272       -0.0171791         144.723
0.593                    -1.5758         179.979         -45.1098        -101.694         -45.1098        -101.694       -0.0173545         144.647
0.594                   -1.65511         178.893         -44.8815        -103.483         -44.8815        -103.483       -0.0175334         144.571
0.595                   -1.74041         177.793         -44.6528        -105.294         -44.6528        -105.293       -0.0177159         144.494
0.596                   -1.83223         176.679         -44.4238        -107.128         -44.4239        -107.128       -0.0179019         144.418
0.597                   -1.93111         175.553         -44.1948        -108.987         -44.1949        -108.987       -0.0180918         144.341
0.598                   -2.03763         174.417          -43.966        -110.872          -43.966        -110.872       -0.0182854         144.264
0.599                   -2.15242         173.272         -43.7375        -112.783         -43.7375        -112.783       -0.0184831         144.187
0.6                     -2.27617         172.121         -43.5096        -114.722         -43.5096        -114.722       -0.0186848         144.109
0.601                   -2.40956         170.967         -43.2825         -116.69         -43.2826        -116.689       -0.0188906         144.032
0.602                   -2.55337         169.814         -43.0566        -118.686         -43.0566        -118.686       -0.0191008         143.954
0.603                   -2.70835         168.667         -42.8321        -120.713         -42.8321        -120.713       -0.0193153         143.876
0.604                   -2.87533         167.532         -42.6093         -122.77         -42.6093         -122.77       -0.0195344         143.797
0.605                    -3.0551         166.415         -42.3885        -124.859         -42.3885        -124.859        -0.019758         143.719
0.606                   -3.24848         165.324         -42.1701        -126.979         -42.1701        -126.979       -0.0199863          143.64
0.607                   -3.45626         164.269         -41.9544        -129.131         -41.9544        -129.131       -0.0202195         143.562
0.608                   -3.67913         163.261         -41.7418        -131.315         -41.7418        -131.315       -0.0204574         143.482
0.609                   -3.91773         162.312         -41.5327         -133.53         -41.5327         -133.53       -0.0207004         143.403
0.61                    -4.17251         161.439         -41.3274        -135.777         -41.3274        -135.777       -0.0209483         143.324
0.611                    -4.4437         160.657         -41.1263        -138.055         -41.1263        -138.055       -0.0212014         143.244
0.612                   -4.73123         159.987         -40.9299        -140.363         -40.9299        -140.363       -0.0214595         143.164
0.613                   -5.03459          159.45         -40.7385          -142.7         -40.7385          -142.7       -0.0217228         143.084
0.614                   -5.35274          159.07         -40.5525        -145.064         -40.5526        -145.064       -0.0219913         143.004
0.615                    -5.6839         158.874         -40.3724        -147.455         -40.3724        -147.455        -0.022265         142.923
0.616                   -6.02544         158.887         -40.1984         -149.87         -40.1984         -149.87       -0.0225439         142.842
0.617                   -6.37362         159.137          -40.031        -152.307          -40.031        -152.307       -0.0228279         142.761
0.618                   -6.72349          159.65         -39.8704        -154.764         -39.8704        -154.764       -0.0231171          142.68
0.619                    -7.0687         160.447         -39.7169        -157.238         -39.7169        -157.237       -0.0234113         142.599
0.62                    -7.40156         161.542         -39.5708        -159.726         -39.5708        -159.725       -0.0237104         142.517
0.621                    -7.7131         162.938         -39.4323        -162.225         -39.4323        -162.225       -0.0240144         142.435
0.622                    -7.9936         164.624         -39.3016        -164.731         -39.3016        -164.731       -0.0243231         142.353
0.623                   -8.23319          166.57         -39.1788        -167.243         -39.1788        -167.243       -0.0246364         142.271
0.624                    -8.4229         168.726          -39.064        -169.755          -39.064        -169.755       -0.0249542         142.188
0.625                    -8.5557         171.028         -38.9571        -172.265         -38.9571        -172.265       -0.0252762         142.105
0.626                    -8.6275         173.395         -38.8582        -174.769         -38.8582        -174.769       -0.0256023         142.022
0.627                   -8.63772         175.744         -38.7672        -177.263         -38.7671        -177.263       -0.0259323         141.939
0.628                   -8.58934         177.995         -38.6838        -179.744         -38.6838        -179.744        -0.026266         141.855
0.629                   -8.48834        -179.921         -38.6079         177.792         -38.6079         177.791       -0.0266031         141.771
0.63                    -8.34273        -178.057         -38.5393         175.346         -38.5393         175.346       -0.0269436         141.687
0.631                   -8.16156        -176.446         -38.4777         172.924         -38.4776         172.923       -0.0272871         141.603
0.632                   -7.95387        -175.105         -38.4227         170.526         -38.4227         170.526       -0.0276336         141.518
0.633                   -7.72804        -174.036          -38.374         168.156         -38.3739         168.156       -0.0279827         141.434
0.634                   -7.49137         -173.23         -38.3312         165.816         -38.3311         165.816       -0.0283345         141.348
0.635                   -7.24989        -172.672         -38.2939         163.508         -38.2938         163.508       -0.0286887         141.263
0.636                   -7.00839        -172.342         -38.2616         161.233         -38.2616         161.233       -0.0290453         141.177
0.637                   -6.77052        -172.219          -38.234         158.994          -38.234         158.994       -0.0294041         141.091
0.638                   -6.53897        -172.279         -38.2106          156.79         -38.2105          156.79       -0.0297652         141.005
0.639                   -6.31563        -172.503         -38.1909         154.623         -38.1909         154.623       -0.0301285         140.918
0.64                    -6.10175        -172.871         -38.1745         152.494         -38.1745         152.494        -0.030494         140.831
0.641                   -5.89808        -173.366          -38.161         150.402          -38.161         150.402       -0.0308617         140.744
0.642                   -5.70503        -173.971         -38.1499         148.349         -38.1499         148.348       -0.0312318         140.657
0.643                   -5.52271        -174.673         -38.1408         146.333         -38.1408         146.332       -0.0316044         140.569
0.644                   -5.35104         -175.46         -38.1333         144.354         -38.1333         144.354       -0.0319796         140.481
0.645                    -5.1898        -176.322         -38.1271         142.413         -38.1271         142.413       -0.0323576         140.392
0.646                   -5.03867        -177.249         -38.1217         140.508         -38.1217         140.508       -0.0327387         140.303
0.647                   -4.89727        -178.233         -38.1169          138.64         -38.1169         138.639       -0.0331229         140.214
0.648                    -4.7652        -179.269         -38.1122         136.806         -38.1122         136.805       -0.0335106         140.124
0.649                   -4.64203          179.65         -38.1074         135.006         -38.1073         135.005       -0.0339021         140.034
0.65                    -4.52733         178.528         -38.1021         133.239         -38.1021         133.238       -0.0342976         139.944
0.651                   -4.42067          177.37         -38.0961         131.503         -38.0961         131.503       -0.0346975         139.853
0.652                   -4.32164         176.177         -38.0892         129.799         -38.0891         129.798        -0.035102         139.762
0.653                   -4.22985         174.955          -38.081         128.123          -38.081         128.123       -0.0355115         139.671
0.654                   -4.14492         173.704         -38.0714         126.476         -38.0714         126.476       -0.0359263         139.579
0.655                   -4.06652         172.426         -38.0601         124.856         -38.0601         124.856       -0.0363467         139.487
0.656                    -3.9943         171.124          -38.047         123.261          -38.047         123.261       -0.0367732         139.394
0.657                   -3.92798         169.798         -38.0319         121.691         -38.0319          121.69       -0.0372059         139.301
0.658                   -3.86726         168.449         -38.0146         120.143         -38.0145         120.142       -0.0376454         139.207
0.659                   -3.81189         167.078         -37.9949         118.616         -37.9949         118.616       -0.0380918         139.113
0.66                    -3.76165         165.686         -37.9728         117.109         -37.9727         117.109       -0.0385456         139.019
0.661                   -3.71631         164.273          -37.948         115.621          -37.948         115.621       -0.0390071         138.924
0.662                   -3.67568         162.838         -37.9206          114.15         -37.9206          114.15       -0.0394766         138.829
0.663                   -3.63959         161.383         -37.8903         112.695         -37.8903         112.695       -0.0399545         138.733
0.664                   -3.60788         159.907         -37.8571         111.255         -37.8571         111.254       -0.0404412         138.637
0.665                   -3.58042         158.409         -37.8209         109.827         -37.8209         109.827       -0.0409368          138.54
0.666                   -3.55709         156.889         -37.7817         108.411         -37.7817          108.41       -0.0414418         138.443
0.667                   -3.53778         155.348         -37.7393         107.005         -37.7393         107.004       -0.0419566         138.346
0.668                   -3.52241         153.784         -37.6938         105.607         -37.6938         105.607       -0.0424814         138.248
0.669                   -3.51089         152.197          -37.645         104.217          -37.645         104.217       -0.0430165         138.149
0.67                    -3.50318         150.586          -37.593         102.834          -37.593         102.833       -0.0435624          138.05
0.671                   -3.49922         148.951         -37.5377         101.454         -37.5377         101.454       -0.0441192         137.951
0.672                   -3.49899          147.29         -37.4792         100.078         -37.4791         100.078       -0.0446875          137.85
0.673                   -3.50245         145.603         -37.4173         98.7044         -37.4173         98.7042       -0.0452674          137.75
0.674                    -3.5096          143.89         -37.3521          97.331         -37.3521         97.3308       -0.0458594         137.649
0.675                   -3.52044         142.148         -37.2836         95.9567         -37.2836         95.9566       -0.0464637         137.547
0.676                     -3.535         140.377         -37.2119         94.5803         -37.2119         94.5802       -0.0470808         137.445
0.677                   -3.55328         138.577          -37.137         93.2005          -37.137         93.2004       -0.0477109         137.342
0.678                   -3.57533         136.745         -37.0588         91.8159         -37.0588         91.8157       -0.0483544         137.239
0.679                    -3.6012         134.881         -36.9776         90.4251         -36.9775          90.425       -0.0490117         137.135
0.68                    -3.63094         132.983         -36.8932          89.027         -36.8932         89.0269       -0.0496832          137.03
0.681                   -3.66461          131.05         -36.8058         87.6201         -36.8058         87.6201       -0.0503691         136.925
0.682                   -3.70231         129.081         -36.7156         86.2034         -36.7155         86.2033       -0.0510699          136.82
0.683                    -3.7441         127.074         -36.6224         84.7754         -36.6224         84.7753        -0.051786         136.713
0.684                   -3.79008         125.028         -36.5266          83.335         -36.5266          83.335       -0.0525177         136.606
0.685                   -3.84037         122.941         -36.4281         81.8811         -36.4281          81.881       -0.0532655         136.499
0.686                   -3.89506         120.812         -36.3272         80.4124         -36.3272         80.4124       -0.0540297         136.391
0.687                   -3.95429         118.638         -36.2239         78.9279         -36.2239         78.9278       -0.0548109         136.282
0.688                   -4.01817         116.418         -36.1185         77.4265         -36.1184         77.4264       -0.0556093         136.172
0.689                   -4.08685         114.151          -36.011         75.9071         -36.0109         75.9071       -0.0564256         136.062
0.69                    -4.16045         111.834         -35.9016         74.3689         -35.9016         74.3688         -0.05726         135.951
0.691                   -4.23913         109.464         -35.7906         72.8108         -35.7905         72.8108       -0.0581131          135.84
0.692                   -4.32302         107.041         -35.6781         71.2323          -35.678         71.2322       -0.0589854         135.728
0.693                   -4.41229         104.562         -35.5643         69.6323         -35.5643         69.6323       -0.0598774         135.615
0.694                   -4.50707         102.024         -35.4495         68.0104         -35.4495         68.0104       -0.0607896         135.501
0.695                   -4.60751         99.4253          -35.334          66.366         -35.3339          66.366       -0.0617224         135.387
0.696                   -4.71375         96.7628         -35.2178         64.6986         -35.2178         64.6986       -0.0626765         135.271