! TOUCHSTONE file generated by CST MICROWAVE STUDIO
! Date and time: Fri Dec 11 14:15:37 2020
! Project name: Scenario_1_Planar_Body_Tissue_Out_of_Line_v2.cst
! Parameters = {dy1=121.1; L_HA=400; Ltissue=700; MT=2.54; Rad_Dielectric=30; Rad_Lower=7.3; Rad_Upper=30; Wtissue=700; a_HA=580; a_WG=246; b_HA=500; b_WG=121; c_HA=0; c_WG=187; d_feed=85; dx1=520; h_feed=15; h_lower=18; h_upper=40; hfat=3; hgap=25; hmuscle=50; hskin=1.5}
! Header version: 2018
! Port assignment regex: !\s*Touchstone port\s*([0-9]+)\s*=\s*(CST MWS port|CST DS port)\s*([0-9]+|Zmin|Zmax)\s*\(\"(.*)\"\)(\s*mode\s*([0-9]+))?.*
! Touchstone port assignment:
! Touchstone port 1 = CST MWS port 1 ("")
! Touchstone port 2 = CST MWS port 2 ("")
# GHz S DB R 50
0.5                   -0.0796148        -121.973         -61.9957        -53.9758         -61.9949        -53.9746      -0.00736951         151.157
0.501                 -0.0824552        -122.431         -61.7788        -54.8702         -61.7781        -54.8697       -0.0074296         151.092
0.502                 -0.0854978        -122.893          -61.558         -55.788         -61.5574        -55.7881      -0.00749052         151.027
0.503                 -0.0887587        -123.359         -61.3331        -56.7296         -61.3325        -56.7302      -0.00755228         150.961
0.504                 -0.0922556        -123.828         -61.1041        -57.6956         -61.1036        -57.6967      -0.00761491         150.896
0.505                  -0.096008        -124.302         -60.8708        -58.6867         -60.8704        -58.6882      -0.00767841          150.83
0.506                  -0.100037        -124.781         -60.6333        -59.7035          -60.633        -59.7054      -0.00774281         150.765
0.507                  -0.104367        -125.263         -60.3915         -60.747         -60.3911        -60.7492      -0.00780813         150.699
0.508                  -0.109023        -125.751         -60.1452        -61.8178         -60.1449        -61.8203      -0.00787439         150.633
0.509                  -0.114034        -126.243         -59.8944        -62.9171         -59.8941        -62.9197      -0.00794161         150.567
0.51                   -0.119432        -126.739          -59.639        -64.0456         -59.6388        -64.0484      -0.00800982         150.502
0.511                  -0.125252        -127.241          -59.379        -65.2047         -59.3789        -65.2076      -0.00807904         150.435
0.512                  -0.131532        -127.748         -59.1143        -66.3955         -59.1142        -66.3985      -0.00814932         150.369
0.513                  -0.138316        -128.259         -58.8449        -67.6193         -58.8448        -67.6223      -0.00822067         150.303
0.514                   -0.14565        -128.777         -58.5706        -68.8776         -58.5706        -68.8806      -0.00829315         150.237
0.515                  -0.153588        -129.299         -58.2916        -70.1719         -58.2915         -70.175       -0.0083668         150.171
0.516                  -0.162187        -129.828         -58.0076        -71.5041         -58.0076        -71.5071      -0.00844166         150.104
0.517                  -0.171512        -130.362         -57.7187        -72.8759         -57.7187        -72.8788      -0.00851777         150.038
0.518                  -0.181636        -130.901         -57.4249        -74.2894          -57.425        -74.2922      -0.00859521         149.971
0.519                  -0.192635        -131.447         -57.1262        -75.7468         -57.1263        -75.7496      -0.00867404         149.904
0.52                     -0.2046        -131.998         -56.8226        -77.2506         -56.8227        -77.2532      -0.00875432         149.838
0.521                  -0.217626        -132.556         -56.5141        -78.8032         -56.5142        -78.8056      -0.00883614         149.771
0.522                  -0.231821        -133.119         -56.2009        -80.4075          -56.201        -80.4098      -0.00891958         149.704
0.523                  -0.247302        -133.688          -55.883        -82.0665          -55.883        -82.0687      -0.00900474         149.637
0.524                  -0.264199        -134.262         -55.5605        -83.7835         -55.5606        -83.7854      -0.00909173         149.569
0.525                  -0.282653        -134.842         -55.2336        -85.5619         -55.2337        -85.5636      -0.00918068         149.502
0.526                  -0.302818        -135.428         -54.9026        -87.4053         -54.9027        -87.4069      -0.00927171         149.435
0.527                  -0.324861        -136.017         -54.5678        -89.3178         -54.5678        -89.3191      -0.00936498         149.367
0.528                  -0.348959        -136.611         -54.2294        -91.3033         -54.2294        -91.3045      -0.00946065           149.3
0.529                  -0.375301        -137.207         -53.8879        -93.3663          -53.888        -93.3673       -0.0095589         149.232
0.53                   -0.404085        -137.806         -53.5439        -95.5112         -53.5439         -95.512      -0.00965992         149.165
0.531                  -0.435512        -138.405         -53.1979        -97.7426         -53.1979        -97.7432      -0.00976393         149.097
0.532                  -0.469783        -139.004         -52.8507        -100.065         -52.8507        -100.065      -0.00987116         149.029
0.533                  -0.507089        -139.599         -52.5032        -102.483         -52.5032        -102.483      -0.00998183         148.961
0.534                  -0.547603        -140.189         -52.1563        -105.001         -52.1562        -105.002       -0.0100962         148.893
0.535                  -0.591464         -140.77         -51.8112        -107.624         -51.8111        -107.624       -0.0102145         148.824
0.536                   -0.63876         -141.34         -51.4691        -110.354         -51.4691        -110.354        -0.010337         148.756
0.537                  -0.689507        -141.894         -51.1316        -113.196         -51.1316        -113.195       -0.0104639         148.688
0.538                  -0.743622        -142.428         -50.8004         -116.15         -50.8003        -116.149       -0.0105953         148.619
0.539                  -0.800896        -142.937         -50.4771        -119.217          -50.477        -119.217       -0.0107315         148.551
0.54                   -0.860966        -143.417         -50.1637        -122.398         -50.1636        -122.398       -0.0108724         148.482
0.541                  -0.923288        -143.863         -49.8623         -125.69         -49.8621         -125.69        -0.011018         148.413
0.542                  -0.987117        -144.269         -49.5749        -129.088         -49.5747        -129.087       -0.0111681         148.344
0.543                    -1.0515        -144.633         -49.3037        -132.585         -49.3035        -132.585       -0.0113223         148.275
0.544                    -1.1153        -144.952         -49.0506        -136.173         -49.0504        -136.173         -0.01148         148.206
0.545                    -1.1772        -145.223         -48.8177         -139.84         -48.8175         -139.84       -0.0116406         148.137
0.546                   -1.23581        -145.449         -48.6064        -143.572         -48.6062        -143.572       -0.0118032         148.068
0.547                   -1.28971        -145.632         -48.4183        -147.353         -48.4181        -147.353       -0.0119666         147.999
0.548                   -1.33757        -145.778         -48.2543        -151.166         -48.2541        -151.166       -0.0121296          147.93
0.549                   -1.37826        -145.894         -48.1149        -154.992         -48.1147        -154.992        -0.012291         147.861
0.55                    -1.41094        -145.989         -48.0002        -158.812              -48        -158.812       -0.0124497         147.791
0.551                   -1.43512        -146.073         -47.9098        -162.608         -47.9096        -162.608       -0.0126044         147.722
0.552                   -1.45068        -146.158         -47.8429        -166.361         -47.8427        -166.361       -0.0127544         147.652
0.553                   -1.45789        -146.253         -47.7981        -170.055          -47.798        -170.056        -0.012899         147.583
0.554                   -1.45732        -146.367          -47.774        -173.676          -47.774        -173.677       -0.0130379         147.513
0.555                   -1.44981        -146.508         -47.7687        -177.212         -47.7687        -177.212        -0.013171         147.443
0.556                   -1.43636        -146.682         -47.7802         179.348         -47.7802         179.347       -0.0132985         147.373
0.557                   -1.41801        -146.893         -47.8064          176.01         -47.8064         176.009        -0.013421         147.303
0.558                   -1.39586        -147.143         -47.8452         172.779         -47.8452         172.779       -0.0135389         147.233
0.559                   -1.37091        -147.433         -47.8945         169.659         -47.8945         169.659        -0.013653         147.163
0.56                    -1.34409        -147.763         -47.9524          166.65         -47.9524          166.65       -0.0137641         147.092
0.561                    -1.3162        -148.131          -48.017         163.752          -48.017         163.752        -0.013873         147.021
0.562                   -1.28792        -148.536         -48.0866         160.963         -48.0867         160.963       -0.0139804         146.951
0.563                   -1.25983        -148.975         -48.1598          158.28         -48.1599         158.279       -0.0140869          146.88
0.564                   -1.23237        -149.446         -48.2351         155.698         -48.2352         155.698       -0.0141932         146.809
0.565                   -1.20588        -149.946         -48.3114         153.215         -48.3115         153.215       -0.0142998         146.737
0.566                   -1.18064        -150.474         -48.3876         150.825         -48.3877         150.825       -0.0144072         146.666
0.567                   -1.15682        -151.026         -48.4628         148.524         -48.4629         148.524       -0.0145157         146.594
0.568                   -1.13457        -151.601         -48.5362         146.306         -48.5363         146.306       -0.0146256         146.523
0.569                   -1.11397        -152.196         -48.6072         144.166         -48.6073         144.167       -0.0147373         146.451
0.57                    -1.09506        -152.811         -48.6752         142.101         -48.6753         142.101       -0.0148509         146.379
0.571                   -1.07788        -153.443         -48.7398         140.104         -48.7399         140.105       -0.0149666         146.307
0.572                   -1.06242        -154.091         -48.8005         138.172         -48.8006         138.173       -0.0150845         146.234
0.573                   -1.04867        -154.754         -48.8571         136.301         -48.8571         136.301       -0.0152047         146.162
0.574                    -1.0366        -155.431         -48.9092         134.485         -48.9093         134.485       -0.0153273         146.089
0.575                   -1.02619        -156.121         -48.9568         132.721         -48.9568         132.721       -0.0154523         146.016
0.576                    -1.0174        -156.824         -48.9995         131.005         -48.9996         131.005       -0.0155798         145.943
0.577                   -1.01021        -157.539         -49.0374         129.334         -49.0375         129.334       -0.0157098          145.87
0.578                   -1.00457        -158.265         -49.0703         127.704         -49.0704         127.705       -0.0158423         145.797
0.579                   -1.00045        -159.001         -49.0982         126.113         -49.0982         126.113       -0.0159774         145.724
0.58                   -0.997828        -159.749         -49.1209         124.557          -49.121         124.557        -0.016115          145.65
0.581                  -0.996673        -160.507         -49.1386         123.033         -49.1386         123.033       -0.0162552         145.576
0.582                  -0.996965        -161.275         -49.1511         121.539         -49.1511         121.539       -0.0163979         145.502
0.583                  -0.998685        -162.054         -49.1584         120.072         -49.1585         120.073       -0.0165433         145.428
0.584                   -1.00182        -162.843         -49.1607         118.631         -49.1607         118.631       -0.0166911         145.354
0.585                   -1.00636        -163.641         -49.1579         117.212         -49.1579         117.213       -0.0168416          145.28
0.586                    -1.0123         -164.45           -49.15         115.814           -49.15         115.815       -0.0169947         145.205
0.587                   -1.01964        -165.269         -49.1371         114.435          -49.137         114.435       -0.0171503         145.131
0.588                   -1.02839        -166.099         -49.1192         113.073         -49.1191         113.073       -0.0173086         145.056
0.589                   -1.03856        -166.938         -49.0963         111.725         -49.0963         111.726       -0.0174694         144.981
0.59                    -1.05016        -167.788         -49.0686         110.391         -49.0685         110.391       -0.0176329         144.906
0.591                   -1.06322        -168.649          -49.036         109.069         -49.0359         109.069        -0.017799          144.83
0.592                   -1.07776        -169.521         -48.9986         107.757         -48.9986         107.757       -0.0179678         144.755
0.593                   -1.09381        -170.404         -48.9565         106.453         -48.9564         106.453       -0.0181392         144.679
0.594                   -1.11141        -171.298         -48.9097         105.157         -48.9096         105.157       -0.0183134         144.603
0.595                   -1.13061        -172.203         -48.8582         103.866         -48.8582         103.866       -0.0184902         144.527
0.596                   -1.15145         -173.12         -48.8022          102.58         -48.8022          102.58       -0.0186697         144.451
0.597                   -1.17398        -174.049         -48.7417         101.297         -48.7416         101.297        -0.018852         144.374
0.598                   -1.19828         -174.99         -48.6767         100.016         -48.6767         100.016       -0.0190371         144.298
0.599                    -1.2244        -175.944         -48.6074          98.735         -48.6073         98.7348        -0.019225         144.221
0.6                     -1.25242         -176.91         -48.5337         97.4537         -48.5336         97.4534       -0.0194158         144.144
0.601                   -1.28242        -177.889         -48.4558         96.1704         -48.4557         96.1701       -0.0196094         144.067
0.602                    -1.3145        -178.882         -48.3736         94.8841         -48.3735         94.8838       -0.0198059         143.989
0.603                   -1.34875        -179.888         -48.2873         93.5937         -48.2873         93.5933       -0.0200053         143.912
0.604                   -1.38527         179.092          -48.197         92.2978          -48.197         92.2974       -0.0202078         143.834
0.605                   -1.42418         178.058         -48.1027         90.9955         -48.1027         90.9951       -0.0204132         143.756
0.606                    -1.4656          177.01         -48.0045         89.6857         -48.0045         89.6852       -0.0206218         143.678
0.607                   -1.50967         175.947         -47.9025         88.3671         -47.9025         88.3666       -0.0208334         143.599
0.608                   -1.55653         174.869         -47.7968         87.0387         -47.7967         87.0382       -0.0210482         143.521
0.609                   -1.60633         173.777         -47.6873         85.6994         -47.6873         85.6989       -0.0212662         143.442
0.61                    -1.65925         172.669         -47.5744         84.3481         -47.5743         84.3476       -0.0214874         143.363
0.611                   -1.71546         171.546          -47.458         82.9838         -47.4579         82.9833        -0.021712         143.284
0.612                   -1.77515         170.407         -47.3382         81.6054         -47.3381         81.6049       -0.0219399         143.204
0.613                   -1.83853         169.252         -47.2152         80.2118         -47.2151         80.2113       -0.0221712         143.125
0.614                   -1.90583         168.082          -47.089          78.802          -47.089         78.8014        -0.022406         143.045
0.615                   -1.97727         166.896         -46.9599         77.3749         -46.9598         77.3744       -0.0226444         142.965
0.616                   -2.05312         165.694         -46.8278         75.9295         -46.8278          75.929       -0.0228863         142.884
0.617                   -2.13363         164.477         -46.6931         74.4648         -46.6931         74.4643        -0.023132         142.804
0.618                   -2.21911         163.244         -46.5557         72.9799         -46.5557         72.9794       -0.0233813         142.723
0.619                   -2.30987         161.997          -46.416         71.4736          -46.416         71.4732       -0.0236344         142.642
0.62                    -2.40622         160.734          -46.274         69.9452          -46.274         69.9448       -0.0238915          142.56
0.621                   -2.50852         159.457         -46.1299         68.3937         -46.1299         68.3932       -0.0241524         142.479
0.622                   -2.61715         158.167         -45.9839         66.8181         -45.9839         66.8177       -0.0244174         142.397
0.623                    -2.7325         156.864         -45.8362         65.2178         -45.8362         65.2174       -0.0246865         142.315
0.624                   -2.85499          155.55         -45.6871         63.5919          -45.687         63.5916       -0.0249597         142.233
0.625                   -2.98507         154.225         -45.5366         61.9397         -45.5366         61.9394       -0.0252373          142.15
0.626                    -3.1232          152.89         -45.3852         60.2605         -45.3852         60.2603       -0.0255191         142.068
0.627                   -3.26988         151.549          -45.233         58.5538          -45.233         58.5536       -0.0258054         141.985
0.628                   -3.42564         150.202         -45.0803         56.8191         -45.0803         56.8189       -0.0260962         141.901
0.629                   -3.59102         148.852         -44.9273         55.0561         -44.9273         55.0559       -0.0263916         141.818
0.63                     -3.7666         147.503         -44.7743         53.2643         -44.7743         53.2641       -0.0266917         141.734
0.631                   -3.95298         146.156         -44.6217         51.4437         -44.6217         51.4436       -0.0269966          141.65
0.632                   -4.15077         144.816         -44.4696         49.5942         -44.4696         49.5941       -0.0273063         141.565
0.633                   -4.36064         143.487         -44.3185          47.716         -44.3185         47.7159        -0.027621         141.481
0.634                   -4.58323         142.174         -44.1686         45.8092         -44.1686         45.8092       -0.0279408         141.396
0.635                   -4.81923         140.882         -44.0202         43.8744         -44.0202         43.8743       -0.0282657          141.31
0.636                   -5.06932         139.619         -43.8737          41.912         -43.8737          41.912       -0.0285959         141.225
0.637                    -5.3342         138.391         -43.7293         39.9229         -43.7293         39.9229       -0.0289314         141.139
0.638                   -5.61455         137.207         -43.5874          37.908         -43.5873         37.9079       -0.0292723         141.053
0.639                   -5.91102         136.076         -43.4482         35.8683         -43.4482         35.8683       -0.0296187         140.966
0.64                    -6.22423          135.01         -43.3121         33.8053         -43.3121         33.8052       -0.0299708          140.88
0.641                   -6.55473         134.022         -43.1793         31.7203         -43.1793         31.7203       -0.0303285         140.793
0.642                   -6.90298         133.125         -43.0501         29.6151         -43.0501          29.615       -0.0306921         140.705
0.643                    -7.2693         132.335         -42.9248         27.4914         -42.9247         27.4914       -0.0310614         140.618
0.644                   -7.65379         131.672         -42.8035         25.3513         -42.8034         25.3512       -0.0314367          140.53
0.645                   -8.05629         131.156         -42.6864         23.1969         -42.6864         23.1968       -0.0318181         140.441
0.646                   -8.47626         130.812         -42.5738         21.0303         -42.5738         21.0302       -0.0322055         140.353
0.647                   -8.91266         130.664         -42.4657         18.8541         -42.4657         18.8539        -0.032599         140.264
0.648                   -9.36373         130.743         -42.3623         16.6705         -42.3622         16.6703       -0.0329988         140.174
0.649                   -9.82686          131.08         -42.2636         14.4821         -42.2635         14.4819       -0.0334049         140.085
0.65                    -10.2982         131.709         -42.1696         12.2915         -42.1695         12.2912       -0.0338173         139.995
0.651                   -10.7726         132.663         -42.0804          10.101         -42.0803         10.1008       -0.0342361         139.904
0.652                   -11.2431         133.973         -41.9959         7.91336         -41.9958         7.91306       -0.0346614         139.813
0.653                   -11.7006         135.666          -41.916         5.73089          -41.916         5.73056       -0.0350932         139.722
0.654                   -12.1343         137.757         -41.8407         3.55602         -41.8406         3.55566       -0.0355316         139.631
0.655                   -12.5312         140.243         -41.7698         1.39103         -41.7697         1.39065       -0.0359766         139.539
0.656                   -12.8777         143.099         -41.7031       -0.761901          -41.703       -0.762302       -0.0364284         139.447
0.657                   -13.1598         146.271         -41.6404        -2.90073         -41.6404        -2.90115        -0.036887         139.354
0.658                   -13.3661         149.676         -41.5816        -5.02356         -41.5816          -5.024       -0.0373524         139.261
0.659                   -13.4885         153.204         -41.5264        -7.12867         -41.5263        -7.12912       -0.0378248         139.168
0.66                    -13.5244         156.735         -41.4745         -9.2145         -41.4745        -9.21496       -0.0383043         139.074
0.661                   -13.4769         160.147         -41.4257        -11.2797         -41.4257        -11.2801        -0.038791          138.98
0.662                   -13.3543         163.334         -41.3797         -13.323         -41.3796        -13.3234        -0.039285         138.885
0.663                   -13.1682         166.217         -41.3361        -15.3434         -41.3361        -15.3439       -0.0397865          138.79
0.664                   -12.9321         168.746         -41.2949        -17.3401         -41.2948        -17.3406       -0.0402955         138.695
0.665                   -12.6593         170.897         -41.2555        -19.3125         -41.2555        -19.3129       -0.0408124         138.599
0.666                   -12.3619         172.671         -41.2177        -21.2599         -41.2177        -21.2603       -0.0413372         138.502
0.667                   -12.0504         174.083         -41.1814        -23.1821         -41.1813        -23.1825       -0.0418702         138.405
0.668                   -11.7329         175.157          -41.146        -25.0789          -41.146        -25.0793       -0.0424116         138.308
0.669                    -11.416         175.924         -41.1115        -26.9503         -41.1115        -26.9507       -0.0429616          138.21
0.67                    -11.1044         176.414         -41.0774        -28.7963         -41.0774        -28.7966       -0.0435205         138.112
0.671                   -10.8014         176.658         -41.0436        -30.6171         -41.0436        -30.6174       -0.0440885         138.013
0.672                   -10.5094         176.685         -41.0098        -32.4131         -41.0098        -32.4134       -0.0446658         137.914
0.673                   -10.2298         176.521         -40.9757        -34.1847         -40.9757        -34.1849       -0.0452529         137.815
0.674                   -9.96368         176.188         -40.9412        -35.9323         -40.9412        -35.9325         -0.04585         137.714
0.675                   -9.71136         175.708          -40.906        -37.6566          -40.906        -37.6567       -0.0464573         137.614
0.676                   -9.47299         175.097         -40.8699        -39.3581         -40.8699        -39.3583       -0.0470752         137.512
0.677                   -9.24847         174.372         -40.8327        -41.0377         -40.8327        -41.0378       -0.0477041         137.411
0.678                   -9.03755         173.546         -40.7942         -42.696         -40.7942        -42.6961       -0.0483442         137.308
0.679                   -8.83985          172.63         -40.7542        -44.3339         -40.7542         -44.334       -0.0489959         137.205
0.68                    -8.65496         171.634         -40.7127        -45.9522         -40.7127        -45.9523       -0.0496596         137.102
0.681                   -8.48242         170.566         -40.6694        -47.5518         -40.6694        -47.5518       -0.0503356         136.998
0.682                   -8.32175         169.435         -40.6242        -49.1336         -40.6242        -49.1336       -0.0510243         136.893
0.683                   -8.17248         168.245          -40.577        -50.6985         -40.5769        -50.6985        -0.051726         136.788
0.684                   -8.03413         167.003         -40.5276        -52.2474         -40.5276        -52.2474       -0.0524412         136.682
0.685                   -7.90626         165.712          -40.476        -53.7814          -40.476        -53.7813       -0.0531702         136.576
0.686                   -7.78843         164.377          -40.422        -55.3013          -40.422        -55.3012       -0.0539134         136.469
0.687                   -7.68025         163.001         -40.3656        -56.8082         -40.3656        -56.8081       -0.0546712         136.361
0.688                   -7.58131         161.587         -40.3067         -58.303         -40.3067        -58.3029       -0.0554441         136.253
0.689                   -7.49128         160.137         -40.2452        -59.7867         -40.2451        -59.7866       -0.0562325         136.144
0.69                    -7.40982         158.652         -40.1809        -61.2603         -40.1809        -61.2602       -0.0570368         136.034
0.691                   -7.33663         157.135          -40.114        -62.7248          -40.114        -62.7247       -0.0578575         135.924
0.692                   -7.27143         155.586         -40.0443        -64.1811         -40.0442         -64.181        -0.058695         135.813
0.693                   -7.21397         154.007         -39.9717        -65.6303         -39.9716        -65.6302       -0.0595497         135.701
0.694                   -7.16403         152.399         -39.8962        -67.0734         -39.8962        -67.0733       -0.0604222         135.589
0.695                    -7.1214         150.761         -39.8178        -68.5113         -39.8178        -68.5112        -0.061313         135.476
0.696                   -7.08591         149.094         -39.7365         -69.945         -39.7365         -69.945       -0.0622226         135.362