! TOUCHSTONE file generated by CST MICROWAVE STUDIO
! Date and time: Mon Nov 30 08:10:45 2020
! Project name: Scenario_1_Planar_Body_Tissue_Out_of_Line.cst
! Parameters = {dy1=121.1; L_HA=400; Ltissue=700; MT=2.54; Rad_Dielectric=30; Rad_Lower=7.3; Rad_Upper=30; Wtissue=700; a_HA=580; a_WG=246; b_HA=500; b_WG=121; c_HA=0; c_WG=187; d_feed=85; dx1=866; h_feed=15; h_lower=18; h_upper=40; hfat=3; hgap=25; hmuscle=50; hskin=1.5}
! Header version: 2018
! Port assignment regex: !\s*Touchstone port\s*([0-9]+)\s*=\s*(CST MWS port|CST DS port)\s*([0-9]+|Zmin|Zmax)\s*\(\"(.*)\"\)(\s*mode\s*([0-9]+))?.*
! Touchstone port assignment:
! Touchstone port 1 = CST MWS port 1 ("")
! Touchstone port 2 = CST MWS port 2 ("")
# GHz S DB R 50
0.5                    -0.104936        -122.134          -63.872         102.619          -63.872         102.622      -0.00750226         151.145
0.501                  -0.109563        -122.605          -63.615         100.959         -63.6128         100.842      -0.00758165          151.08
0.502                  -0.114753         -123.08         -63.3534         99.2601         -63.3495         99.0306      -0.00766197         151.014
0.503                  -0.120555        -123.559         -63.0873         97.5188         -63.0821         97.1865      -0.00774319         150.949
0.504                  -0.127022        -124.042         -62.8167          95.733         -62.8107         95.3069      -0.00782528         150.884
0.505                  -0.134208        -124.528         -62.5418         93.8999         -62.5355          93.389       -0.0079082         150.818
0.506                  -0.142173        -125.018         -62.2626         92.0166         -62.2566         91.4301      -0.00799192         150.752
0.507                  -0.150979        -125.511         -61.9795           90.08         -61.9742         89.4272      -0.00807641         150.687
0.508                   -0.16069        -126.007         -61.6926          88.087         -61.6884          87.377      -0.00816164         150.621
0.509                  -0.171371        -126.506         -61.4021         86.0341         -61.3995         85.2764      -0.00824756         150.555
0.51                   -0.183092        -127.007         -61.1086         83.9181          -61.108         83.1218      -0.00833416         150.489
0.511                  -0.195916        -127.509         -60.8123         81.7351          -60.814         80.9097      -0.00842139         150.423
0.512                  -0.209909        -128.013         -60.5137         79.4817         -60.5181         78.6365      -0.00850922         150.357
0.513                  -0.225129        -128.518         -60.2135         77.1542         -60.2208         76.2987      -0.00859763         150.291
0.514                  -0.241625        -129.022         -59.9122         74.7489         -59.9226         73.8925      -0.00868656         150.225
0.515                  -0.259435        -129.524         -59.6107         72.2625         -59.6242         71.4143      -0.00877601         150.158
0.516                  -0.278583        -130.025         -59.3098         69.6917         -59.3264         68.8609      -0.00886593         150.092
0.517                  -0.299067        -130.522         -59.0105         67.0334         -59.0301         66.2289      -0.00895629         150.026
0.518                  -0.320862        -131.014         -58.7138         64.2854         -58.7362         63.5157      -0.00904707         149.959
0.519                   -0.34391          -131.5          -58.421         61.4456         -58.4459         60.7189      -0.00913823         149.892
0.52                   -0.368114        -131.979         -58.1335         58.5132         -58.1603          57.837      -0.00922976         149.826
0.521                  -0.393337        -132.449         -57.8526          55.488         -57.8807          54.869      -0.00932161         149.759
0.522                  -0.419395        -132.908         -57.5798         52.3712         -57.6085         51.8152      -0.00941378         149.692
0.523                  -0.446058        -133.357         -57.3167         49.1651         -57.3452         48.6769      -0.00950623         149.625
0.524                  -0.473049        -133.793          -57.065         45.8737         -57.0923         45.4568      -0.00959895         149.558
0.525                  -0.500054        -134.217         -56.8261         42.5025         -56.8513         42.1591      -0.00969191         149.491
0.526                  -0.526724        -134.627         -56.6017          39.059         -56.6238         38.7895       -0.0097851         149.424
0.527                  -0.552692        -135.024         -56.3932          35.552          -56.411         35.3554       -0.0098785         149.357
0.528                  -0.577588        -135.409         -56.2017         31.9921         -56.2145         31.8657       -0.0099721         149.289
0.529                  -0.601054        -135.783         -56.0285         28.3915         -56.0352         28.3309       -0.0100659         149.222
0.53                   -0.622763        -136.147         -55.8741         24.7634         -55.8741         24.7629       -0.0101599         149.154
0.531                  -0.642439        -136.503         -55.7392         21.1218         -55.7318         21.1746        -0.010254         149.087
0.532                  -0.659865        -136.854         -55.6238         17.4813         -55.6088         17.5795       -0.0103483         149.019
0.533                  -0.674899        -137.203         -55.5277         13.8564          -55.505         13.9915       -0.0104428         148.951
0.534                  -0.687474        -137.551         -55.4505         10.2611         -55.4202         10.4243       -0.0105375         148.883
0.535                  -0.697598        -137.902         -55.3913          6.7086         -55.3538         6.89141       -0.0106323         148.815
0.536                  -0.705349        -138.258          -55.349          3.2109         -55.3048         3.40505       -0.0107274         148.747
0.537                  -0.710865        -138.621         -55.3223       -0.221504         -55.2723      -0.0235316       -0.0108226         148.679
0.538                  -0.714335        -138.993         -55.3097        -3.57974         -55.2547        -3.38458       -0.0109181         148.611
0.539                  -0.715978        -139.376         -55.3097        -6.85668         -55.2508        -6.66993       -0.0110138         148.542
0.54                   -0.716038        -139.772         -55.3205        -10.0469         -55.2589        -9.87304       -0.0111098         148.474
0.541                  -0.714769        -140.181         -55.3407        -13.1467         -55.2774         -12.989        -0.011206         148.405
0.542                  -0.712423        -140.603         -55.3684        -16.1538         -55.3046        -16.0146       -0.0113026         148.337
0.543                  -0.709246         -141.04         -55.4022        -19.0673          -55.339        -18.9479       -0.0113996         148.268
0.544                  -0.705468        -141.492         -55.4407        -21.8876         -55.3791        -21.7882       -0.0114969         148.199
0.545                  -0.701302        -141.958         -55.4823         -24.616         -55.4234        -24.5362       -0.0115947          148.13
0.546                  -0.696941        -142.439         -55.5259        -27.2546         -55.4705        -27.1933        -0.011693         148.061
0.547                  -0.692557        -142.933         -55.5704        -29.8063         -55.5192        -29.7617       -0.0117918         147.991
0.548                  -0.688303        -143.441         -55.6146        -32.2741         -55.5685        -32.2442       -0.0118912         147.922
0.549                   -0.68431        -143.963         -55.6577        -34.6618         -55.6172        -34.6443       -0.0119912         147.853
0.55                   -0.680694        -144.498         -55.6989        -36.9733         -55.6644        -36.9654       -0.0120919         147.783
0.551                  -0.677553        -145.045         -55.7374        -39.2125         -55.7094        -39.2116       -0.0121934         147.713
0.552                  -0.674974        -145.605         -55.7727        -41.3834         -55.7514        -41.3868       -0.0122958         147.644
0.553                  -0.673028        -146.176         -55.8042        -43.4903         -55.7898        -43.4951       -0.0123991         147.574
0.554                  -0.671779        -146.759         -55.8315         -45.537          -55.824        -45.5406       -0.0125033         147.504
0.555                  -0.671284        -147.352         -55.8541        -47.5276         -55.8537        -47.5274       -0.0126085         147.433
0.556                  -0.671589        -147.957         -55.8718         -49.466         -55.8783        -49.4596       -0.0127149         147.363
0.557                   -0.67274        -148.572         -55.8841        -51.3558         -55.8975        -51.3409       -0.0128225         147.293
0.558                  -0.674775        -149.197          -55.891        -53.2008         -55.9111        -53.1754       -0.0129313         147.222
0.559                  -0.677732        -149.832         -55.8922        -55.0044         -55.9187        -54.9666       -0.0130414         147.151
0.56                   -0.681647        -150.477         -55.8875          -56.77         -55.9202        -56.7181       -0.0131529         147.081
0.561                  -0.686555        -151.132         -55.8769        -58.5008         -55.9154        -58.4335       -0.0132658          147.01
0.562                  -0.692492        -151.797         -55.8601        -60.1998         -55.9041         -60.116       -0.0133802         146.939
0.563                  -0.699493        -152.471         -55.8372        -61.8702         -55.8862        -61.7688       -0.0134961         146.867
0.564                  -0.707596        -153.154          -55.808        -63.5146         -55.8617        -63.3951       -0.0136137         146.796
0.565                  -0.716842        -153.847         -55.7725         -65.136         -55.8304        -64.9978       -0.0137328         146.725
0.566                  -0.727273         -154.55         -55.7307        -66.7368         -55.7923        -66.5798       -0.0138536         146.653
0.567                  -0.738935        -155.262         -55.6825        -68.3197         -55.7474        -68.1439       -0.0139762         146.581
0.568                  -0.751877        -155.983          -55.628        -69.8871         -55.6956        -69.6927       -0.0141005         146.509
0.569                  -0.766154        -156.713         -55.5671        -71.4415          -55.637        -71.2289       -0.0142266         146.437
0.57                   -0.781823        -157.453         -55.4998         -72.985         -55.5714        -72.7551       -0.0143545         146.365
0.571                  -0.798947        -158.203         -55.4263        -74.5201         -55.4991        -74.2736       -0.0144842         146.293
0.572                  -0.817596        -158.962         -55.3464        -76.0488         -55.4199        -75.7869       -0.0146158          146.22
0.573                  -0.837844         -159.73         -55.2602        -77.5733          -55.334        -77.2973       -0.0147494         146.148
0.574                  -0.859772        -160.508         -55.1678        -79.0958         -55.2413        -78.8071       -0.0148849         146.075
0.575                  -0.883468        -161.295         -55.0691        -80.6183         -55.1419        -80.3185       -0.0150224         146.002
0.576                  -0.909027        -162.092         -54.9643        -82.1429          -55.036        -81.8339       -0.0151619         145.929
0.577                  -0.936552        -162.898         -54.8534        -83.6716         -54.9235        -83.3553       -0.0153036         145.856
0.578                  -0.966154        -163.714         -54.7365        -85.2065         -54.8045        -84.8848       -0.0154474         145.782
0.579                  -0.997954        -164.539         -54.6136        -86.7495         -54.6792        -86.4247       -0.0155934         145.709
0.58                    -1.03208        -165.373         -54.4848        -88.3027         -54.5476        -87.9771       -0.0157416         145.635
0.581                   -1.06867        -166.216         -54.3502        -89.8681         -54.4099         -89.544       -0.0158922         145.561
0.582                   -1.10788        -167.068         -54.2098        -91.4476         -54.2662        -91.1275       -0.0160451         145.487
0.583                   -1.14987        -167.929         -54.0639        -93.0434         -54.1166        -92.7296       -0.0162004         145.413
0.584                    -1.1948        -168.797         -53.9124        -94.6574         -53.9613        -94.3525       -0.0163583         145.339
0.585                   -1.24286        -169.674         -53.7556        -96.2917         -53.8004        -95.9982       -0.0165186         145.264
0.586                   -1.29424        -170.557         -53.5935        -97.9483         -53.6342        -97.6686       -0.0166816          145.19
0.587                   -1.34914        -171.447         -53.4263        -99.6294         -53.4628        -99.3659       -0.0168472         145.115
0.588                   -1.40779        -172.342         -53.2542        -101.337         -53.2865        -101.092       -0.0170156          145.04
0.589                   -1.47041        -173.241         -53.0774        -103.073         -53.1054        -102.849       -0.0171867         144.965
0.59                    -1.53722        -174.144          -52.896         -104.84         -52.9198        -104.639       -0.0173606         144.889
0.591                   -1.60848        -175.049         -52.7103         -106.64           -52.73        -106.463       -0.0175375         144.814
0.592                   -1.68443        -175.954         -52.5206        -108.474         -52.5363        -108.324       -0.0177173         144.738
0.593                   -1.76531        -176.857         -52.3271        -110.346         -52.3391        -110.224          -0.0179         144.662
0.594                   -1.85138        -177.756           -52.13        -112.256         -52.1386        -112.164       -0.0180858         144.586
0.595                   -1.94288        -178.649         -51.9299        -114.208         -51.9352        -114.146       -0.0182747          144.51
0.596                   -2.04003        -179.532         -51.7269        -116.202         -51.7293        -116.171       -0.0184667         144.434
0.597                   -2.14303         179.598         -51.5215        -118.242         -51.5214        -118.241       -0.0186618         144.357
0.598                   -2.25207         178.745         -51.3142        -120.328         -51.3119        -120.358       -0.0188601         144.281
0.599                   -2.36727         177.914         -51.1053        -122.462         -51.1013        -122.522       -0.0190616         144.204
0.6                     -2.48869         177.108         -50.8954        -124.646         -50.8901        -124.735       -0.0192664         144.127
0.601                   -2.61635         176.333          -50.685         -126.88         -50.6788        -126.997       -0.0194744         144.049
0.602                   -2.75013         175.596         -50.4747        -129.167          -50.468        -129.308       -0.0196858         143.972
0.603                   -2.88983         174.901         -50.2651        -131.506         -50.2584         -131.67       -0.0199004         143.894
0.604                   -3.03509         174.257         -50.0568        -133.898         -50.0504        -134.081       -0.0201184         143.816
0.605                   -3.18538          173.67         -49.8504        -136.343         -49.8447        -136.541       -0.0203397         143.738
0.606                   -3.34001         173.146         -49.6468         -138.84          -49.642         -139.05       -0.0205643          143.66
0.607                   -3.49803         172.693         -49.4464         -141.39         -49.4429        -141.606       -0.0207923         143.581
0.608                    -3.6583         172.318         -49.2501        -143.989         -49.2479        -144.207       -0.0210237         143.503
0.609                   -3.81941         172.026         -49.0585        -146.637         -49.0577        -146.851       -0.0212584         143.424
0.61                    -3.97969         171.822         -48.8724        -149.332         -48.8729        -149.536       -0.0214965         143.345
0.611                   -4.13726         171.709         -48.6923        -152.069         -48.6941        -152.259       -0.0217379         143.265
0.612                   -4.29003         171.688          -48.519        -154.846         -48.5217        -155.016       -0.0219826         143.186
0.613                   -4.43574         171.759         -48.3529        -157.658         -48.3562        -157.803       -0.0222308         143.106
0.614                   -4.57208         171.917         -48.1945        -160.502          -48.198        -160.616       -0.0224822         143.026
0.615                   -4.69675         172.156         -48.0444        -163.371         -48.0474        -163.451        -0.022737         142.946
0.616                   -4.80759         172.464         -47.9028        -166.262         -47.9047        -166.304        -0.022995         142.866
0.617                   -4.90271          172.83           -47.77        -169.168         -47.7701        -169.168       -0.0232564         142.785
0.618                   -4.98057         173.236         -47.6461        -172.083         -47.6435        -172.039       -0.0235211         142.704
0.619                   -5.04013         173.666         -47.5312        -175.002         -47.5251        -174.913       -0.0237891         142.623
0.62                    -5.08088           174.1         -47.4251        -177.918         -47.4146        -177.784       -0.0240604         142.542
0.621                   -5.10288         174.519         -47.3277         179.172          -47.312         179.353       -0.0243349          142.46
0.622                   -5.10674         174.905         -47.2388         176.277         -47.2171         176.501       -0.0246128         142.379
0.623                    -5.0936          175.24         -47.1579         173.399         -47.1293         173.665        -0.024894         142.297
0.624                   -5.06496          175.51         -47.0846         170.545         -47.0485         170.848       -0.0251785         142.214
0.625                   -5.02268         175.702         -47.0183         167.717         -46.9742         168.055       -0.0254663         142.132
0.626                   -4.96877         175.807         -46.9586         164.921         -46.9058         165.289       -0.0257575         142.049
0.627                   -4.90533         175.819         -46.9047         162.158         -46.8429         162.551        -0.026052         141.966
0.628                   -4.83446         175.733         -46.8559         159.432         -46.7849         159.844         -0.02635         141.883
0.629                   -4.75817         175.549         -46.8117         156.745         -46.7313         157.169       -0.0266514         141.799
0.63                    -4.67832         175.265         -46.7713         154.098         -46.6815         154.529       -0.0269564         141.715
0.631                   -4.59658         174.886         -46.7341         151.491         -46.6349         151.924       -0.0272649         141.631
0.632                   -4.51445         174.412         -46.6993         148.926         -46.5911         149.353       -0.0275771         141.547
0.633                   -4.43321          173.85         -46.6663         146.403         -46.5495         146.818       -0.0278931         141.462
0.634                   -4.35395         173.201         -46.6345          143.92         -46.5095         144.319       -0.0282128         141.377
0.635                    -4.2776         172.473         -46.6033         141.477         -46.4708         141.853       -0.0285365         141.292
0.636                   -4.20492         171.669         -46.5721         139.073         -46.4328         139.422       -0.0288642         141.207
0.637                   -4.13651         170.793         -46.5405         136.707          -46.395         137.023        -0.029196         141.121
0.638                   -4.07287         169.851         -46.5078         134.376         -46.3572         134.656       -0.0295322         141.035
0.639                   -4.01439         168.847         -46.4738         132.079         -46.3189         132.319       -0.0298727         140.948
0.64                    -3.96138         167.784          -46.438         129.814         -46.2797         130.011       -0.0302178         140.861
0.641                   -3.91408         166.666            -46.4         127.577         -46.2395         127.729       -0.0305675         140.774
0.642                   -3.87269         165.496         -46.3595         125.368         -46.1978         125.473       -0.0309222         140.687
0.643                   -3.83735         164.276         -46.3163         123.183         -46.1544          123.24       -0.0312819         140.599
0.644                   -3.80819         163.011         -46.2701          121.02         -46.1092         121.028       -0.0316467         140.511
0.645                   -3.78531           161.7         -46.2207         118.876         -46.0619         118.837        -0.032017         140.423
0.646                    -3.7688         160.347         -46.1681         116.748         -46.0123         116.662       -0.0323928         140.334
0.647                   -3.75876         158.953          -46.112         114.635         -45.9604         114.503       -0.0327744         140.245
0.648                   -3.75527         157.519         -46.0523         112.532         -45.9059         112.358       -0.0331619         140.156
0.649                   -3.75843         156.046         -45.9892         110.438         -45.8489         110.224       -0.0335556         140.066
0.65                    -3.76836         154.535         -45.9224         108.349         -45.7892         108.099       -0.0339556         139.976
0.651                   -3.78518         152.987         -45.8522         106.263         -45.7268         105.983       -0.0343622         139.885
0.652                   -3.80903         151.402         -45.7785         104.178         -45.6616         103.871       -0.0347755         139.794
0.653                   -3.84009          149.78         -45.7015         102.091         -45.5937         101.764       -0.0351958         139.703
0.654                   -3.87855         148.121         -45.6214         99.9996         -45.5231         99.6578       -0.0356232         139.611
0.655                   -3.92463         146.426         -45.5382         97.9016         -45.4498         97.5516        -0.036058         139.519
0.656                   -3.97857         144.694         -45.4522         95.7949         -45.3739         95.4435       -0.0365004         139.427
0.657                   -4.04067         142.925         -45.3637         93.6778         -45.2955         93.3316       -0.0369506         139.334
0.658                   -4.11123         141.119         -45.2729         91.5485         -45.2146         91.2142       -0.0374088         139.241
0.659                   -4.19063         139.276         -45.1801         89.4057         -45.1313         89.0895       -0.0378751         139.147
0.66                    -4.27925         137.394         -45.0857         87.2482         -45.0459         86.9561         -0.03835         139.053
0.661                   -4.37755         135.475         -44.9899         85.0751         -44.9584         84.8124       -0.0388334         138.959
0.662                     -4.486         133.516          -44.893          82.886         -44.8691         82.6569       -0.0393257         138.864
0.663                   -4.60515         131.519         -44.7955         80.6803         -44.7781         80.4883       -0.0398271         138.769
0.664                   -4.73559         129.481         -44.6974         78.4582         -44.6857         78.3054       -0.0403377         138.673
0.665                   -4.87798         127.404         -44.5993         76.2198          -44.592          76.107       -0.0408578         138.577
0.666                   -5.03303         125.285         -44.5013         73.9653         -44.4974         73.8922       -0.0413877          138.48
0.667                   -5.20154         123.126         -44.4036         71.6952         -44.4021         71.6601       -0.0419275         138.383
0.668                   -5.38435         120.926         -44.3064         69.4101         -44.3063           69.41       -0.0424774         138.286
0.669                   -5.58242         118.684           -44.21         67.1104         -44.2104         67.1415       -0.0430377         138.188
0.67                    -5.79677           116.4         -44.1145         64.7967         -44.1147         64.8541       -0.0436087         138.089
0.671                   -6.02855         114.074           -44.02         62.4693         -44.0195         62.5477       -0.0441904          137.99
0.672                   -6.27901         111.706         -43.9267         60.1288         -43.9251         60.2225       -0.0447833         137.891
0.673                   -6.54951         109.296         -43.8348         57.7753         -43.8318         57.8786       -0.0453874         137.791
0.674                   -6.84158         106.843         -43.7443          55.409           -43.74         55.5167       -0.0460031          137.69
0.675                    -7.1569         104.349         -43.6556         53.0304           -43.65         53.1374       -0.0466307         137.589
0.676                   -7.49737         101.812         -43.5687         50.6396         -43.5621         50.7417       -0.0472703         137.488
0.677                    -7.8651         99.2337         -43.4839         48.2372         -43.4766         48.3309       -0.0479222         137.386
0.678                   -8.26247          96.613         -43.4015         45.8236         -43.3939         45.9064       -0.0485867         137.283
0.679                   -8.69221         93.9501         -43.3216         43.3996         -43.3141         43.4698        -0.049264          137.18
0.68                    -9.15745         91.2443         -43.2446         40.9664         -43.2376         41.0231       -0.0499545         137.076
0.681                   -9.66183         88.4947         -43.1706         38.5252         -43.1645         38.5683       -0.0506585         136.972
0.682                   -10.2096         85.6996         -43.0999         36.0775          -43.095         36.1077       -0.0513761         136.867
0.683                    -10.806         82.8564         -43.0328         33.6253         -43.0294         33.6437       -0.0521078         136.762
0.684                   -11.4571          79.961         -42.9695         31.1707         -42.9677         31.1788       -0.0528539         136.656
0.685                   -12.1705         77.0072         -42.9099          28.716         -42.9099         28.7156       -0.0536146         136.549
0.686                   -12.9559         73.9853         -42.8544         26.2637         -42.8562         26.2567       -0.0543903         136.442
0.687                   -13.8255          70.881          -42.803         23.8166         -42.8065         23.8049       -0.0551814         136.334
0.688                   -14.7954         67.6719         -42.7556         21.3772         -42.7608         21.3627       -0.0559882         136.225
0.689                   -15.8876         64.3227         -42.7122         18.9485         -42.7189         18.9329        -0.056811         136.116
0.69                    -17.1327         60.7757         -42.6727         16.5331         -42.6807         16.5178       -0.0576503         136.006
0.691                   -18.5756         56.9314          -42.637         14.1337         -42.6462         14.1199       -0.0585065         135.896
0.692                   -20.2854         52.6058         -42.6049         11.7528         -42.6149         11.7415       -0.0593799         135.785
0.693                   -22.3763         47.4219         -42.5762         9.39278         -42.5868         9.38456       -0.0602709         135.673
0.694                   -25.0525         40.4827         -42.5505         7.05572         -42.5614         7.05097       -0.0611801          135.56
0.695                   -28.7086         29.1097         -42.5277         4.74354         -42.5387         4.74241       -0.0621078         135.447
0.696                    -33.864         2.30269         -42.5072         2.45792         -42.5182         2.46032       -0.0630545         135.333