! TOUCHSTONE file generated by CST MICROWAVE STUDIO
! Date and time: Sat Nov 14 20:40:39 2020
! Project name: Scenario_1_Planar_Body_Tissue_Out_of_Line_v2.cst
! Parameters = {dy1=-155.7; L_HA=400; Ltissue=700; MT=2.54; Rad_Dielectric=30; Rad_Lower=7.3; Rad_Upper=30; Wtissue=700; a_HA=580; a_WG=246; b_HA=500; b_WG=121; c_HA=0; c_WG=187; d_feed=85; dx1=173; h_feed=15; h_lower=18; h_upper=40; hfat=3; hgap=25; hmuscle=50; hskin=1.5}
! Header version: 2018
! Port assignment regex: !\s*Touchstone port\s*([0-9]+)\s*=\s*(CST MWS port|CST DS port)\s*([0-9]+|Zmin|Zmax)\s*\(\"(.*)\"\)(\s*mode\s*([0-9]+))?.*
! Touchstone port assignment:
! Touchstone port 1 = CST MWS port 1 ("")
! Touchstone port 2 = CST MWS port 2 ("")
# GHz S DB R 50
0.5                   -0.0471005        -121.743         -59.1652          130.11         -59.1652         130.111      -0.00688694         151.143
0.501                 -0.0479749        -122.195         -59.0033          129.32         -59.0034          129.32      -0.00689179         151.078
0.502                 -0.0489377         -122.65         -58.8388         128.537          -58.839         128.537      -0.00689942         151.012
0.503                 -0.0499931        -123.109         -58.6715         127.761         -58.6718         127.759      -0.00690983         150.947
0.504                 -0.0511454        -123.571         -58.5015          126.99         -58.5019         126.988      -0.00692303         150.881
0.505                 -0.0523992        -124.036         -58.3287         126.226         -58.3292         126.223        -0.006939         150.815
0.506                 -0.0537596        -124.506         -58.1531         125.468         -58.1537         125.464      -0.00695775         150.749
0.507                 -0.0552318        -124.979         -57.9747         124.715         -57.9753         124.711      -0.00697929         150.683
0.508                 -0.0568218        -125.456         -57.7932         123.967         -57.7939         123.963       -0.0070036         150.617
0.509                 -0.0585357        -125.937         -57.6088         123.225         -57.6096         123.219       -0.0070307         150.551
0.51                  -0.0603803        -126.422         -57.4214         122.487         -57.4223         122.481      -0.00706058         150.485
0.511                 -0.0623629        -126.912         -57.2309         121.753         -57.2318         121.747      -0.00709324         150.419
0.512                 -0.0644914        -127.405         -57.0372         121.023         -57.0382         121.017      -0.00712869         150.352
0.513                 -0.0667742        -127.904         -56.8403         120.297         -56.8413          120.29      -0.00716692         150.286
0.514                 -0.0692207        -128.407         -56.6401         119.574         -56.6412         119.567      -0.00720793         150.219
0.515                 -0.0718409        -128.914         -56.4365         118.854         -56.4377         118.846      -0.00725173         150.153
0.516                 -0.0746456        -129.427         -56.2295         118.135         -56.2307         118.128      -0.00729831         150.086
0.517                 -0.0776467        -129.945          -56.019         117.418         -56.0203         117.411      -0.00734767         150.019
0.518                 -0.0808571        -130.467         -55.8049         116.703         -55.8062         116.695      -0.00739982         149.952
0.519                 -0.0842907        -130.996         -55.5871         115.987         -55.5885         115.979      -0.00745476         149.885
0.52                  -0.0879629         -131.53         -55.3656         115.272          -55.367         115.264      -0.00751248         149.818
0.521                 -0.0918904        -132.069         -55.1402         114.555         -55.1416         114.547      -0.00757299         149.751
0.522                 -0.0960914        -132.615         -54.9109         113.837         -54.9123         113.829      -0.00763628         149.684
0.523                  -0.100586        -133.167         -54.6776         113.117          -54.679         113.109      -0.00770237         149.617
0.524                  -0.105396        -133.726         -54.4401         112.393         -54.4415         112.386      -0.00777124         149.549
0.525                  -0.110545        -134.291         -54.1984         111.666         -54.1999         111.658      -0.00784291         149.482
0.526                  -0.116061        -134.863         -53.9523         110.933         -53.9538         110.926      -0.00791737         149.414
0.527                  -0.121972        -135.442         -53.7019         110.195         -53.7034         110.188      -0.00799463         149.346
0.528                  -0.128309        -136.029         -53.4469         109.449         -53.4484         109.442      -0.00807468         149.279
0.529                   -0.13511        -136.623         -53.1872         108.696         -53.1887         108.689      -0.00815754         149.211
0.53                   -0.142412        -137.226         -52.9228         107.933         -52.9243         107.927       -0.0082432         149.143
0.531                  -0.150259        -137.838         -52.6535          107.16          -52.655         107.154      -0.00833166         149.075
0.532                    -0.1587        -138.458         -52.3792         106.375         -52.3807         106.369      -0.00842295         149.007
0.533                  -0.167788        -139.087         -52.0998         105.576         -52.1012         105.571      -0.00851705         148.938
0.534                  -0.177582        -139.726         -51.8151         104.763         -51.8166         104.758      -0.00861397          148.87
0.535                  -0.188149        -140.375         -51.5251         103.934         -51.5265         103.929      -0.00871373         148.801
0.536                  -0.199562        -141.035         -51.2296         103.087          -51.231         103.082      -0.00881633         148.733
0.537                  -0.211905        -141.706         -50.9285          102.22         -50.9299         102.216      -0.00892178         148.664
0.538                  -0.225271        -142.388         -50.6217         101.331          -50.623         101.327       -0.0090301         148.595
0.539                  -0.239763        -143.083          -50.309         100.418         -50.3103         100.414      -0.00914129         148.527
0.54                     -0.2555         -143.79         -49.9903         99.4787         -49.9916         99.4757      -0.00925538         148.458
0.541                  -0.272613        -144.511         -49.6655          98.511         -49.6668         98.5083      -0.00937239         148.389
0.542                  -0.291252        -145.246         -49.3346         97.5121         -49.3357         97.5097      -0.00949233         148.319
0.543                  -0.311585        -145.995         -48.9972         96.4792         -48.9983         96.4771      -0.00961523          148.25
0.544                  -0.333804         -146.76         -48.6535         95.4092         -48.6545         95.4074      -0.00974113         148.181
0.545                  -0.358126        -147.541         -48.3032         94.2989         -48.3042         94.2974      -0.00987006         148.111
0.546                  -0.384799        -148.339         -47.9463         93.1448         -47.9472         93.1436       -0.0100021         148.042
0.547                  -0.414103        -149.155         -47.5827          91.943         -47.5836          91.942       -0.0101372         147.972
0.548                  -0.446362        -149.988         -47.2123         90.6894         -47.2132         90.6886       -0.0102755         147.902
0.549                  -0.481941        -150.842         -46.8352         89.3795          -46.836          89.379       -0.0104171         147.832
0.55                   -0.521263        -151.715         -46.4514         88.0086         -46.4521         88.0082       -0.0105619         147.762
0.551                  -0.564809        -152.608         -46.0608         86.5712         -46.0614          86.571       -0.0107103         147.692
0.552                  -0.613133        -153.523         -45.6636         85.0619         -45.6642         85.0618       -0.0108621         147.621
0.553                  -0.666869        -154.459           -45.26         83.4743         -45.2605         83.4743       -0.0110177         147.551
0.554                  -0.726747        -155.416         -44.8501         81.8019         -44.8506          81.802       -0.0111771          147.48
0.555                  -0.793602        -156.394         -44.4344         80.0375         -44.4348         80.0376       -0.0113406          147.41
0.556                   -0.86839        -157.392         -44.0132         78.1735         -44.0135         78.1737       -0.0115084         147.339
0.557                  -0.952205        -158.409          -43.587         76.2017         -43.5873         76.2019       -0.0116807         147.268
0.558                   -1.04629        -159.443         -43.1568         74.1137          -43.157         74.1138        -0.011858         147.197
0.559                   -1.15204        -160.488         -42.7232         71.9002         -42.7234         71.9004       -0.0120407         147.126
0.56                    -1.27103         -161.54         -42.2876         69.5522         -42.2877         69.5523       -0.0122294         147.054
0.561                     -1.405        -162.592         -41.8513         67.0603         -41.8514         67.0602       -0.0124246         146.983
0.562                   -1.55582        -163.632          -41.416         64.4151          -41.416          64.415       -0.0126273         146.911
0.563                   -1.72546        -164.647         -40.9838         61.6082         -40.9838          61.608       -0.0128384         146.839
0.564                   -1.91591        -165.617         -40.5572         58.6318         -40.5571         58.6314       -0.0130593         146.768
0.565                     -2.129        -166.518         -40.1388         55.4797         -40.1387         55.4792       -0.0132915         146.695
0.566                    -2.3662        -167.318         -39.7319         52.1481         -39.7318         52.1475       -0.0135372         146.623
0.567                   -2.62825        -167.978           -39.34         48.6361           -39.34         48.6353       -0.0137987         146.551
0.568                   -2.91469        -168.451          -38.967         44.9466          -38.967         44.9458       -0.0140793         146.478
0.569                   -3.22315        -168.683         -38.6169         41.0875         -38.6168         41.0866       -0.0143826         146.406
0.57                    -3.54863        -168.612         -38.2936         37.0716         -38.2936         37.0707        -0.014713         146.333
0.571                   -3.88262         -168.18          -38.001         32.9177          -38.001         32.9168        -0.015075          146.26
0.572                   -4.21256        -167.337         -37.7425         28.6501         -37.7425         28.6493       -0.0154725         146.187
0.573                   -4.52174        -166.056         -37.5208          24.298         -37.5208         24.2974       -0.0159074         146.115
0.574                   -4.79056        -164.349         -37.3377         19.8948         -37.3377         19.8943       -0.0163761         146.042
0.575                   -4.99905        -162.277          -37.194         15.4759          -37.194         15.4756       -0.0168659          145.97
0.576                   -5.13072        -159.956         -37.0895         11.0772         -37.0895         11.0771       -0.0173503         145.898
0.577                   -5.17648        -157.538         -37.0226         6.73296         -37.0226         6.73304       -0.0177904         145.827
0.578                   -5.13686        -155.191         -36.9912         2.47412         -36.9912         2.47441       -0.0181432         145.756
0.579                   -5.02153        -153.059          -36.992          -1.673          -36.992         -1.6725       -0.0183797         145.685
0.58                    -4.84636        -151.247         -37.0216        -5.68753         -37.0215        -5.68683       -0.0184991         145.614
0.581                   -4.62957        -149.808         -37.0759        -9.55426         -37.0759         -9.5534       -0.0185283         145.543
0.582                   -4.38842        -148.752         -37.1511        -13.2635          -37.151        -13.2625        -0.018507          145.47
0.583                   -4.13726        -148.058         -37.2434        -16.8104         -37.2433        -16.8093       -0.0184715         145.397
0.584                   -3.88688        -147.686         -37.3491        -20.1942          -37.349        -20.1931       -0.0184468         145.323
0.585                    -3.6447         -147.59         -37.4651        -23.4177         -37.4649        -23.4165       -0.0184464         145.249
0.586                   -3.41534        -147.724         -37.5884         -26.486         -37.5882        -26.4847       -0.0184753         145.175
0.587                   -3.20135        -148.045         -37.7166        -29.4058         -37.7163        -29.4046       -0.0185334           145.1
0.588                   -3.00378        -148.516         -37.8475        -32.1854         -37.8473        -32.1842       -0.0186185         145.025
0.589                   -2.82271        -149.107         -37.9795        -34.8333         -37.9792        -34.8322       -0.0187275         144.949
0.59                    -2.65759         -149.79          -38.111        -37.3586         -38.1107        -37.3575        -0.018857         144.874
0.591                   -2.50755        -150.547         -38.2408          -39.77         -38.2405         -39.769       -0.0190041         144.798
0.592                   -2.37151        -151.361         -38.3681        -42.0764         -38.3678        -42.0755       -0.0191661         144.722
0.593                   -2.24833        -152.218         -38.4921         -44.286         -38.4918        -44.2851        -0.019341         144.646
0.594                   -2.13688         -153.11         -38.6122        -46.4066         -38.6119        -46.4059        -0.019527          144.57
0.595                   -2.03607        -154.027          -38.728        -48.4457         -38.7277         -48.445       -0.0197225         144.494
0.596                    -1.9449        -154.963         -38.8392          -50.41         -38.8389        -50.4094       -0.0199263         144.417
0.597                   -1.86244        -155.915         -38.9455        -52.3058         -38.9452        -52.3054       -0.0201376         144.341
0.598                   -1.78785        -156.878         -39.0468        -54.1391         -39.0465        -54.1387       -0.0203553         144.264
0.599                   -1.72036         -157.85          -39.143         -55.915         -39.1428        -55.9147        -0.020579         144.187
0.6                     -1.65931        -158.829         -39.2342        -57.6385         -39.2339        -57.6383        -0.020808         144.109
0.601                   -1.60407        -159.813         -39.3203         -59.314           -39.32        -59.3139       -0.0210419         144.032
0.602                   -1.55411        -160.802         -39.4013        -60.9456          -39.401        -60.9455       -0.0212804         143.955
0.603                   -1.50895        -161.794         -39.4773        -62.5369         -39.4771        -62.5369        -0.021523         143.877
0.604                   -1.46817        -162.789         -39.5484        -64.0914         -39.5482        -64.0915       -0.0217695         143.799
0.605                   -1.43138        -163.787         -39.6147        -65.6122         -39.6145        -65.6122       -0.0220197         143.721
0.606                   -1.39826        -164.788         -39.6762         -67.102         -39.6761         -67.102       -0.0222735         143.643
0.607                    -1.3685        -165.792         -39.7332        -68.5633         -39.7331        -68.5634       -0.0225307         143.564
0.608                   -1.34184        -166.799         -39.7857        -69.9986         -39.7856        -69.9987       -0.0227911         143.485
0.609                   -1.31804        -167.809         -39.8338        -71.4099         -39.8338          -71.41       -0.0230546         143.407
0.61                    -1.29691        -168.822         -39.8777        -72.7992         -39.8776        -72.7993       -0.0233212         143.328
0.611                   -1.27825         -169.84         -39.9174        -74.1684         -39.9174        -74.1684       -0.0235907         143.248
0.612                   -1.26191        -170.861         -39.9531        -75.5189         -39.9531        -75.5189       -0.0238632         143.169
0.613                   -1.24773        -171.887         -39.9849        -76.8523         -39.9849        -76.8523       -0.0241385         143.089
0.614                    -1.2356        -172.918         -40.0129          -78.17         -40.0129          -78.17       -0.0244166         143.009
0.615                    -1.2254        -173.955         -40.0371        -79.4733         -40.0372        -79.4732       -0.0246976         142.929
0.616                   -1.21702        -174.997         -40.0578        -80.7633         -40.0579        -80.7631       -0.0249813         142.849
0.617                    -1.2104        -176.046          -40.075        -82.0411         -40.0751        -82.0408       -0.0252678         142.768
0.618                   -1.20544        -177.101         -40.0888        -83.3077          -40.089        -83.3073       -0.0255571         142.687
0.619                   -1.20208        -178.164         -40.0993        -84.5639         -40.0995        -84.5635       -0.0258492         142.606
0.62                    -1.20027        -179.234         -40.1066        -85.8108         -40.1068        -85.8103        -0.026144         142.525
0.621                   -1.19995         179.687         -40.1107         -87.049         -40.1109        -87.0484       -0.0264417         142.444
0.622                    -1.2011           178.6         -40.1118        -88.2793          -40.112        -88.2786       -0.0267421         142.362
0.623                   -1.20366         177.503         -40.1099        -89.5024         -40.1101        -89.5017       -0.0270454          142.28
0.624                   -1.20763         176.397         -40.1051         -90.719         -40.1053        -90.7181       -0.0273517         142.198
0.625                   -1.21296         175.281         -40.0974        -91.9297         -40.0977        -91.9287       -0.0276608         142.115
0.626                   -1.21966         174.153          -40.087        -93.1351         -40.0872         -93.134       -0.0279729         142.032
0.627                   -1.22771         173.015         -40.0738        -94.3357         -40.0741        -94.3345        -0.028288         141.949
0.628                    -1.2371         171.864          -40.058         -95.532         -40.0582        -95.5307       -0.0286062         141.866
0.629                   -1.24784         170.702         -40.0395        -96.7246         -40.0398        -96.7232       -0.0289275         141.783
0.63                    -1.25992         169.526         -40.0185        -97.9139         -40.0188        -97.9124        -0.029252         141.699
0.631                   -1.27337         168.337          -39.995        -99.1005         -39.9953        -99.0989       -0.0295798         141.615
0.632                   -1.28819         167.134         -39.9691        -100.285         -39.9693        -100.283       -0.0299109          141.53
0.633                   -1.30441         165.916         -39.9407        -101.467         -39.9409        -101.465       -0.0302454         141.446
0.634                   -1.32204         164.683         -39.9099        -102.648         -39.9102        -102.646       -0.0305835         141.361
0.635                   -1.34112         163.434         -39.8768        -103.828         -39.8771        -103.826       -0.0309251         141.276
0.636                   -1.36167         162.168         -39.8414        -105.007         -39.8417        -105.005       -0.0312704          141.19
0.637                   -1.38374         160.886         -39.8038        -106.186          -39.804        -106.184       -0.0316195         141.104
0.638                   -1.40735         159.586         -39.7639        -107.366         -39.7641        -107.363       -0.0319725         141.018
0.639                   -1.43257         158.267         -39.7218        -108.545         -39.7221        -108.543       -0.0323295         140.932
0.64                    -1.45943         156.929         -39.6776        -109.726         -39.6778        -109.724       -0.0326906         140.845
0.641                   -1.48799         155.571         -39.6312        -110.909         -39.6315        -110.906        -0.033056         140.758
0.642                   -1.51832         154.193         -39.5828        -112.093          -39.583        -112.091       -0.0334257          140.67
0.643                   -1.55047         152.793         -39.5323         -113.28         -39.5325        -113.277       -0.0337999         140.583
0.644                   -1.58451         151.372         -39.4798        -114.469           -39.48        -114.466       -0.0341788         140.495
0.645                   -1.62052         149.927         -39.4252        -115.661         -39.4254        -115.659       -0.0345624         140.406
0.646                   -1.65857         148.459         -39.3687        -116.857         -39.3689        -116.855        -0.034951         140.317
0.647                   -1.69876         146.966         -39.3103        -118.057         -39.3105        -118.054       -0.0353447         140.228
0.648                   -1.74117         145.448           -39.25        -119.261         -39.2501        -119.259       -0.0357436         140.139
0.649                   -1.78589         143.903         -39.1878         -120.47         -39.1879        -120.468        -0.036148         140.049
0.65                    -1.83303         142.332         -39.1238        -121.685         -39.1239        -121.683       -0.0365579         139.959
0.651                    -1.8827         140.731          -39.058        -122.905         -39.0581        -122.903       -0.0369737         139.868
0.652                   -1.93501         139.102         -38.9905        -124.132         -38.9906         -124.13       -0.0373954         139.778
0.653                   -1.99009         137.443         -38.9212        -125.365         -38.9213        -125.363       -0.0378232         139.686
0.654                   -2.04805         135.752         -38.8504        -126.606         -38.8504        -126.604       -0.0382575         139.595
0.655                   -2.10904         134.029         -38.7779        -127.854         -38.7779        -127.852       -0.0386982         139.503
0.656                   -2.17319         132.273         -38.7038        -129.111         -38.7039        -129.109       -0.0391458          139.41
0.657                   -2.24065         130.481         -38.6283        -130.377         -38.6284        -130.375       -0.0396004         139.317
0.658                   -2.31158         128.654         -38.5514        -131.651         -38.5514        -131.649       -0.0400621         139.224
0.659                   -2.38614          126.79         -38.4731        -132.936         -38.4731        -132.934       -0.0405314          139.13
0.66                     -2.4645         124.887         -38.3935        -134.231         -38.3935        -134.229       -0.0410083         139.036
0.661                   -2.54683         122.945         -38.3127        -135.536         -38.3127        -135.535       -0.0414932         138.941
0.662                   -2.63333         120.962         -38.2307        -136.853         -38.2307        -136.852       -0.0419863         138.847
0.663                   -2.72416         118.935         -38.1478        -138.182         -38.1478         -138.18       -0.0424879         138.751
0.664                   -2.81954         116.865         -38.0638        -139.523         -38.0638        -139.522       -0.0429981         138.655
0.665                   -2.91966         114.749         -37.9791        -140.877         -37.9791        -140.875       -0.0435174         138.559
0.666                   -3.02473         112.586         -37.8936        -142.243         -37.8935        -142.242        -0.044046         138.462
0.667                   -3.13496         110.374         -37.8075        -143.624         -37.8074        -143.623       -0.0445841         138.365
0.668                   -3.25055         108.111         -37.7208        -145.019         -37.7208        -145.018       -0.0451322         138.267
0.669                   -3.37172         105.795         -37.6339        -146.428         -37.6338        -146.427       -0.0456904         138.169
0.67                    -3.49869         103.425         -37.5466        -147.852         -37.5466        -147.851       -0.0462591          138.07
0.671                   -3.63167         100.998         -37.4593         -149.29         -37.4593         -149.29       -0.0468386         137.971
0.672                   -3.77086          98.512         -37.3721        -150.744         -37.3721        -150.744       -0.0474293         137.871
0.673                   -3.91646         95.9651         -37.2851        -152.214         -37.2851        -152.214       -0.0480314         137.771
0.674                   -4.06867         93.3546         -37.1985        -153.699         -37.1985        -153.699       -0.0486454          137.67
0.675                   -4.22765         90.6781         -37.1125          -155.2         -37.1125          -155.2       -0.0492716         137.569
0.676                   -4.39357         87.9329         -37.0272        -156.716         -37.0272        -156.716       -0.0499103         137.467
0.677                   -4.56655          85.116         -36.9428        -158.248         -36.9428        -158.248       -0.0505619         137.365
0.678                    -4.7467         82.2244         -36.8595        -159.795         -36.8595        -159.795       -0.0512268         137.262
0.679                   -4.93408         79.2549         -36.7775        -161.357         -36.7776        -161.358       -0.0519054         137.158
0.68                    -5.12871         76.2042         -36.6971        -162.934         -36.6971        -162.935       -0.0525981         137.054
0.681                   -5.33054         73.0684         -36.6183        -164.525         -36.6183        -164.525       -0.0533052         136.949
0.682                   -5.53948         69.8439         -36.5413         -166.13         -36.5413         -166.13       -0.0540273         136.844
0.683                   -5.75534         66.5265         -36.4664        -167.747         -36.4665        -167.747       -0.0547647         136.738
0.684                   -5.97784         63.1119         -36.3937        -169.376         -36.3938        -169.376       -0.0555179         136.632
0.685                   -6.20659         59.5957         -36.3235        -171.016         -36.3235        -171.017       -0.0562872         136.525
0.686                    -6.4411         55.9734         -36.2558        -172.666         -36.2559        -172.667       -0.0570733         136.417
0.687                   -6.68068         52.2403         -36.1908        -174.325         -36.1909        -174.326       -0.0578764         136.309
0.688                   -6.92454         48.3917         -36.1287        -175.992         -36.1288        -175.992       -0.0586972           136.2
0.689                   -7.17166         44.4232         -36.0696        -177.665         -36.0696        -177.665        -0.059536          136.09
0.69                    -7.42084         40.3305         -36.0135        -179.342         -36.0136        -179.343       -0.0603935         135.979
0.691                   -7.67065         36.1098         -35.9607         178.977         -35.9608         178.977         -0.06127         135.868
0.692                   -7.91944         31.7583         -35.9111         177.295         -35.9112         177.294       -0.0621662         135.757
0.693                   -8.16531         27.2739         -35.8649         175.612          -35.865         175.612       -0.0630825         135.644
0.694                   -8.40616         22.6563          -35.822         173.931         -35.8221         173.931       -0.0640195         135.531
0.695                   -8.63965         17.9067         -35.7824         172.254         -35.7825         172.254       -0.0649778         135.417
0.696                   -8.86328         13.0286         -35.7462         170.582         -35.7463         170.581        -0.065958         135.303