! TOUCHSTONE file generated by CST MICROWAVE STUDIO
! Date and time: Mon Nov 30 08:10:28 2020
! Project name: Scenario_1_Planar_Body_Tissue_Out_of_Line.cst
! Parameters = {dy1=155.7; L_HA=400; Ltissue=700; MT=2.54; Rad_Dielectric=30; Rad_Lower=7.3; Rad_Upper=30; Wtissue=700; a_HA=580; a_WG=246; b_HA=500; b_WG=121; c_HA=0; c_WG=187; d_feed=85; dx1=866; h_feed=15; h_lower=18; h_upper=40; hfat=3; hgap=25; hmuscle=50; hskin=1.5}
! Header version: 2018
! Port assignment regex: !\s*Touchstone port\s*([0-9]+)\s*=\s*(CST MWS port|CST DS port)\s*([0-9]+|Zmin|Zmax)\s*\(\"(.*)\"\)(\s*mode\s*([0-9]+))?.*
! Touchstone port assignment:
! Touchstone port 1 = CST MWS port 1 ("")
! Touchstone port 2 = CST MWS port 2 ("")
# GHz S DB R 50
0.5                    -0.108587        -122.115         -64.0802         99.9439         -64.0784         99.9515      -0.00750979         151.154
0.501                  -0.113666        -122.579         -63.8108         98.2535          -63.809         98.2606       -0.0075804         151.089
0.502                  -0.119225        -123.045         -63.5381         96.5193         -63.5363         96.5259      -0.00765177         151.024
0.503                  -0.125308        -123.516         -63.2622         94.7391         -63.2604         94.7452      -0.00772394         150.958
0.504                  -0.131961         -123.99         -62.9834         92.9106         -62.9816         92.9161      -0.00779693         150.893
0.505                  -0.139236        -124.468         -62.7017         91.0313         -62.6999         91.0363      -0.00787082         150.827
0.506                  -0.147185        -124.949         -62.4174         89.0987         -62.4156         89.1032      -0.00794565         150.762
0.507                  -0.155866        -125.434         -62.1308         87.1102          -62.129         87.1141      -0.00802149         150.696
0.508                  -0.165338        -125.921          -61.842         85.0631         -61.8402         85.0665       -0.0080984          150.63
0.509                  -0.175665        -126.412         -61.5514         82.9547         -61.5497         82.9576      -0.00817646         150.565
0.51                   -0.186909        -126.905         -61.2595         80.7823         -61.2578         80.7847      -0.00825574         150.499
0.511                  -0.199135          -127.4         -60.9667         78.5431          -60.965          78.545      -0.00833633         150.433
0.512                  -0.212403        -127.896         -60.6735         76.2345         -60.6718         76.2359      -0.00841831         150.367
0.513                  -0.226774        -128.394         -60.3804         73.8538         -60.3789         73.8547      -0.00850178           150.3
0.514                  -0.242298        -128.891         -60.0883         71.3987         -60.0868         71.3991      -0.00858683         150.234
0.515                  -0.259018        -129.388         -59.7977          68.867         -59.7963          68.867      -0.00867354         150.168
0.516                  -0.276961        -129.884         -59.5097         66.2569         -59.5083         66.2566        -0.008762         150.101
0.517                  -0.296135        -130.377         -59.2249         63.5671         -59.2236         63.5664      -0.00885225         150.035
0.518                  -0.316527        -130.866         -58.9445         60.7967         -58.9433         60.7957      -0.00894436         149.968
0.519                   -0.33809        -131.351         -58.6695         57.9456         -58.6684         57.9444      -0.00903832         149.902
0.52                   -0.360744        -131.829         -58.4011         55.0143         -58.4001         55.0129      -0.00913412         149.835
0.521                  -0.384371        -132.299         -58.1404         52.0044         -58.1394         52.0029       -0.0092317         149.768
0.522                  -0.408807        -132.761         -57.8886         48.9184         -57.8877         48.9168      -0.00933093         149.701
0.523                  -0.433844        -133.212         -57.6469         45.7599         -57.6461         45.7584      -0.00943163         149.634
0.524                  -0.459229        -133.653         -57.4166         42.5338         -57.4159         42.5324      -0.00953358         149.567
0.525                   -0.48467        -134.083         -57.1987         39.2461         -57.1981         39.2448      -0.00963649           149.5
0.526                  -0.509843          -134.5         -56.9944          35.904         -56.9939         35.9028      -0.00974004         149.433
0.527                  -0.534407        -134.906         -56.8046         32.5157         -56.8041         32.5149      -0.00984388         149.366
0.528                  -0.558014        -135.301           -56.63         29.0908         -56.6296         29.0902      -0.00994767         149.298
0.529                   -0.58033        -135.686         -56.4713         25.6393          -56.471          25.639       -0.0100511         149.231
0.53                    -0.60105        -136.062         -56.3289          22.172         -56.3286         22.1722       -0.0101538         149.163
0.531                  -0.619918        -136.432         -56.2028         18.7002         -56.2026         18.7008       -0.0102556         149.096
0.532                  -0.636737        -136.797         -56.0932         15.2351         -56.0929         15.2361       -0.0103564         149.028
0.533                  -0.651382         -137.16         -55.9995         11.7878         -55.9993         11.7892        -0.010456          148.96
0.534                  -0.663799        -137.523         -55.9213         8.36877         -55.9212         8.37063       -0.0105544         148.892
0.535                  -0.674004        -137.889          -55.858         4.98797         -55.8578         4.99022       -0.0106518         148.825
0.536                  -0.682082        -138.261         -55.8084         1.65429         -55.8082         1.65691       -0.0107482         148.756
0.537                   -0.68817        -138.639         -55.7717        -1.62441         -55.7715        -1.62145       -0.0108437         148.688
0.538                  -0.692449        -139.027         -55.7466        -4.84144         -55.7463         -4.8382       -0.0109387          148.62
0.539                  -0.695132        -139.425         -55.7319        -7.99136         -55.7316        -7.98787       -0.0110332         148.552
0.54                   -0.696446        -139.834         -55.7264        -11.0699          -55.726        -11.0662       -0.0111274         148.483
0.541                  -0.696627        -140.256         -55.7287         -14.074         -55.7283        -14.0702       -0.0112217         148.414
0.542                  -0.695908        -140.691         -55.7376        -17.0017         -55.7372        -16.9978       -0.0113161         148.346
0.543                   -0.69451        -141.139         -55.7519         -19.852         -55.7514         -19.848       -0.0114108         148.277
0.544                  -0.692643        -141.601         -55.7703        -22.6247         -55.7699        -22.6207        -0.011506         148.208
0.545                  -0.690496        -142.076         -55.7919        -25.3206         -55.7914        -25.3166       -0.0116018         148.139
0.546                   -0.68824        -142.564         -55.8155        -27.9407          -55.815        -27.9368       -0.0116984          148.07
0.547                  -0.686027        -143.065         -55.8403        -30.4871         -55.8397        -30.4832       -0.0117958             148
0.548                  -0.683987        -143.579         -55.8653        -32.9618         -55.8647         -32.958       -0.0118942         147.931
0.549                  -0.682238        -144.104         -55.8898        -35.3674         -55.8892        -35.3638       -0.0119936         147.862
0.55                   -0.680877        -144.642          -55.913        -37.7066         -55.9124        -37.7032       -0.0120942         147.792
0.551                   -0.67999        -145.191         -55.9344        -39.9825         -55.9338        -39.9792       -0.0121958         147.722
0.552                  -0.679649        -145.751         -55.9534         -42.198         -55.9527        -42.1949       -0.0122987         147.652
0.553                  -0.679919        -146.322         -55.9694        -44.3563         -55.9687        -44.3534       -0.0124029         147.582
0.554                  -0.680852        -146.904         -55.9821        -46.4605         -55.9814        -46.4578       -0.0125084         147.512
0.555                  -0.682498        -147.495          -55.991        -48.5137         -55.9903        -48.5112       -0.0126152         147.442
0.556                  -0.684898        -148.097         -55.9958        -50.5191         -55.9951        -50.5167       -0.0127234         147.371
0.557                  -0.688092        -148.708         -55.9962        -52.4796         -55.9956        -52.4774        -0.012833         147.301
0.558                  -0.692114        -149.329          -55.992        -54.3982         -55.9914        -54.3963        -0.012944          147.23
0.559                  -0.696998        -149.959         -55.9829        -56.2779         -55.9823        -56.2761       -0.0130565          147.16
0.56                   -0.702778        -150.598         -55.9688        -58.1214         -55.9682        -58.1198       -0.0131705         147.089
0.561                  -0.709487        -151.246         -55.9494        -59.9315         -55.9489        -59.9301       -0.0132861         147.018
0.562                  -0.717158        -151.903         -55.9247        -61.7109         -55.9242        -61.7097       -0.0134031         146.947
0.563                  -0.725825        -152.569         -55.8946        -63.4622          -55.894        -63.4611       -0.0135218         146.875
0.564                  -0.735525        -153.244         -55.8588        -65.1878         -55.8583        -65.1868       -0.0136421         146.804
0.565                  -0.746297        -153.928         -55.8174        -66.8903          -55.817        -66.8894        -0.013764         146.732
0.566                  -0.758182        -154.621         -55.7703         -68.572         -55.7699        -68.5712       -0.0138875         146.661
0.567                  -0.771226        -155.323         -55.7174        -70.2352          -55.717        -70.2345       -0.0140128         146.589
0.568                  -0.785475        -156.033         -55.6587        -71.8821         -55.6583        -71.8815       -0.0141398         146.517
0.569                  -0.800984        -156.753         -55.5941        -73.5151         -55.5938        -73.5146       -0.0142685         146.445
0.57                   -0.817807        -157.481         -55.5237        -75.1362         -55.5234        -75.1358       -0.0143991         146.373
0.571                  -0.836007        -158.218         -55.4474        -76.7477         -55.4471        -76.7473       -0.0145314           146.3
0.572                  -0.855651        -158.964         -55.3651        -78.3515         -55.3649        -78.3511       -0.0146656         146.228
0.573                  -0.876809        -159.719          -55.277        -79.9499         -55.2768        -79.9495       -0.0148017         146.155
0.574                  -0.899561        -160.483         -55.1831        -81.5447         -55.1829        -81.5444       -0.0149398         146.082
0.575                  -0.923991        -161.256         -55.0832        -83.1382         -55.0831        -83.1378       -0.0150798         146.009
0.576                  -0.950189        -162.038         -54.9776        -84.7323         -54.9775        -84.7318       -0.0152218         145.936
0.577                  -0.978254        -162.829         -54.8661         -86.329          -54.866        -86.3285       -0.0153659         145.863
0.578                   -1.00829        -163.629          -54.749        -87.9303         -54.7489        -87.9298        -0.015512          145.79
0.579                   -1.04042        -164.437         -54.6261        -89.5383          -54.626        -89.5378       -0.0156603         145.716
0.58                    -1.07475        -165.254         -54.4976        -91.1551         -54.4976        -91.1545       -0.0158108         145.642
0.581                   -1.11142        -166.079         -54.3635        -92.7826         -54.3635        -92.7819       -0.0159635         145.569
0.582                   -1.15057        -166.913          -54.224        -94.4228          -54.224        -94.4221       -0.0161185         145.495
0.583                   -1.19235        -167.754         -54.0792         -96.078         -54.0792        -96.0772       -0.0162758          145.42
0.584                   -1.23692        -168.603         -53.9291          -97.75         -53.9291        -97.7491       -0.0164355         145.346
0.585                   -1.28444        -169.458         -53.7738         -99.441         -53.7739        -99.4401       -0.0165976         145.272
0.586                   -1.33509         -170.32         -53.6136        -101.153         -53.6136        -101.152       -0.0167622         145.197
0.587                   -1.38906        -171.188         -53.4485        -102.888         -53.4486        -102.887       -0.0169293         145.122
0.588                   -1.44653         -172.06         -53.2788        -104.649         -53.2789        -104.648        -0.017099         145.047
0.589                   -1.50772        -172.937         -53.1047        -106.437         -53.1047        -106.436       -0.0172713         144.972
0.59                    -1.57283        -173.816         -52.9263        -108.255         -52.9263        -108.253       -0.0174464         144.897
0.591                   -1.64208        -174.696         -52.7439        -110.104         -52.7439        -110.102       -0.0176242         144.821
0.592                   -1.71567        -175.575         -52.5578        -111.986         -52.5578        -111.985       -0.0178048         144.745
0.593                   -1.79383        -176.453         -52.3683        -113.904         -52.3683        -113.903       -0.0179883          144.67
0.594                   -1.87675        -177.326         -52.1756         -115.86         -52.1756        -115.859       -0.0181747         144.594
0.595                   -1.96465        -178.192         -51.9802        -117.856         -51.9802        -117.854        -0.018364         144.517
0.596                    -2.0577        -179.049         -51.7824        -119.892         -51.7824        -119.891       -0.0185564         144.441
0.597                   -2.15605        -179.893         -51.5826        -121.971         -51.5826         -121.97       -0.0187519         144.364
0.598                   -2.25985         179.279         -51.3813        -124.095         -51.3812        -124.094       -0.0189506         144.288
0.599                   -2.36916         178.471         -51.1789        -126.264         -51.1788        -126.263       -0.0191524         144.211
0.6                     -2.48402         177.688          -50.976        -128.481         -50.9759         -128.48       -0.0193574         144.133
0.601                   -2.60438         176.933          -50.773        -130.744         -50.7729        -130.744       -0.0195658         144.056
0.602                    -2.7301         176.213         -50.5706        -133.057         -50.5705        -133.056       -0.0197774         143.979
0.603                   -2.86096         175.533         -50.3693        -135.418         -50.3692        -135.417       -0.0199924         143.901
0.604                   -2.99659         174.898         -50.1698        -137.827         -50.1697        -137.827       -0.0202108         143.823
0.605                   -3.13649         174.313         -49.9726        -140.284         -49.9725        -140.284       -0.0204326         143.745
0.606                      -3.28         173.786         -49.7784        -142.789         -49.7783        -142.789       -0.0206578         143.667
0.607                   -3.42626         173.321         -49.5878         -145.34         -49.5877         -145.34       -0.0208865         143.588
0.608                   -3.57426         172.924         -49.4014        -147.935         -49.4013        -147.936       -0.0211186         143.509
0.609                   -3.72276           172.6         -49.2199        -150.572         -49.2198        -150.573       -0.0213542          143.43
0.61                    -3.87034         172.351         -49.0438        -153.248         -49.0437        -153.249       -0.0215933         143.351
0.611                    -4.0154         172.181         -48.8737        -155.961         -48.8736        -155.962       -0.0218358         143.272
0.612                   -4.15619          172.09           -48.71        -158.706         -48.7099        -158.707       -0.0220817         143.192
0.613                   -4.29084         172.076         -48.5533         -161.48         -48.5532        -161.481        -0.022331         143.113
0.614                   -4.41746         172.136         -48.4038        -164.278         -48.4037        -164.279       -0.0225836         143.033
0.615                   -4.53417         172.265         -48.2618        -167.096         -48.2617        -167.097       -0.0228396         142.952
0.616                   -4.63922         172.453         -48.1276        -169.929         -48.1276         -169.93       -0.0230989         142.872
0.617                   -4.73104         172.691         -48.0013        -172.772         -48.0013        -172.773       -0.0233615         142.791
0.618                   -4.80836         172.964         -47.8829        -175.619         -47.8829        -175.621       -0.0236272          142.71
0.619                   -4.87028         173.259         -47.7724        -178.467         -47.7724        -178.469       -0.0238961         142.629
0.62                    -4.91631         173.561         -47.6696         178.689         -47.6696         178.688       -0.0241682         142.548
0.621                   -4.94639         173.854         -47.5742         175.856         -47.5743         175.855       -0.0244433         142.466
0.622                    -4.9609         174.122         -47.4861         173.036         -47.4861         173.035       -0.0247215         142.384
0.623                   -4.96062         174.352         -47.4048         170.234         -47.4048         170.233       -0.0250028         142.302
0.624                   -4.94666         174.529         -47.3298         167.453         -47.3299         167.452       -0.0252871          142.22
0.625                   -4.92042         174.644         -47.2608         164.697         -47.2609         164.696       -0.0255744         142.137
0.626                   -4.88347         174.688         -47.1972         161.968         -47.1972         161.968       -0.0258648         142.055
0.627                    -4.8375         174.654         -47.1384         159.269         -47.1384         159.269       -0.0261583         141.971
0.628                   -4.78421         174.537         -47.0838         156.601         -47.0839         156.601        -0.026455         141.888
0.629                   -4.72528         174.335          -47.033         153.966         -47.0331         153.967       -0.0267548         141.804
0.63                    -4.66231         174.048         -46.9854         151.365         -46.9854         151.366       -0.0270579         141.721
0.631                   -4.59679         173.674         -46.9403         148.798         -46.9403           148.8       -0.0273644         141.636
0.632                   -4.53005         173.217         -46.8973         146.266         -46.8972         146.267       -0.0276744         141.552
0.633                    -4.4633         172.678         -46.8558         143.768         -46.8557          143.77       -0.0279879         141.467
0.634                   -4.39756         172.061         -46.8153         141.303         -46.8152         141.305       -0.0283052         141.382
0.635                   -4.33375          171.37         -46.7754         138.872         -46.7752         138.874       -0.0286264         141.297
0.636                   -4.27264         170.607         -46.7355         136.472         -46.7353         136.475       -0.0289516         141.211
0.637                   -4.21486         169.776         -46.6954         134.103         -46.6951         134.106        -0.029281         141.125
0.638                   -4.16096         168.881         -46.6546         131.763         -46.6543         131.766       -0.0296149         141.039
0.639                   -4.11138         167.926         -46.6128         129.451         -46.6124         129.454       -0.0299533         140.952
0.64                    -4.06649         166.914         -46.5697         127.164         -46.5693         127.167       -0.0302964         140.866
0.641                    -4.0266         165.847          -46.525         124.902         -46.5245         124.905       -0.0306445         140.778
0.642                   -3.99196         164.729         -46.4784         122.662         -46.4779         122.665       -0.0309978         140.691
0.643                   -3.96278         163.563         -46.4299         120.442         -46.4293         120.445       -0.0313563         140.603
0.644                   -3.93925          162.35         -46.3791          118.24         -46.3785         118.244       -0.0317205         140.515
0.645                   -3.92153         161.092         -46.3259         116.055         -46.3253         116.058       -0.0320903         140.426
0.646                   -3.90976         159.791         -46.2703         113.884         -46.2696         113.887       -0.0324661         140.337
0.647                   -3.90408         158.449          -46.212         111.726         -46.2113         111.729        -0.032848         140.248
0.648                   -3.90463         157.067         -46.1511         109.578         -46.1504         109.581       -0.0332363         140.159
0.649                   -3.91156         155.646         -46.0875         107.438         -46.0867         107.441        -0.033631         140.069
0.65                      -3.925         154.187         -46.0212         105.305         -46.0204         105.307       -0.0340325         139.978
0.651                   -3.94513          152.69         -45.9522         103.176         -45.9513         103.179       -0.0344409         139.888
0.652                   -3.97212         151.156         -45.8804          101.05         -45.8795         101.053       -0.0348564         139.797
0.653                   -4.00617         149.586         -45.8059         98.9251          -45.805         98.9276       -0.0352791         139.705
0.654                    -4.0475          147.98         -45.7289         96.7992         -45.7279         96.8016       -0.0357094         139.613
0.655                   -4.09635         146.337         -45.6493         94.6708         -45.6483          94.673       -0.0361473         139.521
0.656                   -4.15299         144.659         -45.5673         92.5383         -45.5663         92.5403        -0.036593         139.429
0.657                   -4.21772         142.944          -45.483         90.3999          -45.482         90.4018       -0.0370468         139.336
0.658                   -4.29088         141.194         -45.3964         88.2543         -45.3954         88.2561       -0.0375089         139.242
0.659                   -4.37283         139.408         -45.3079            86.1         -45.3069         86.1016       -0.0379793         139.149
0.66                    -4.46399         137.585         -45.2175         83.9356         -45.2165         83.9371       -0.0384584         139.054
0.661                    -4.5648         135.726         -45.1254           81.76         -45.1244         81.7613       -0.0389463          138.96
0.662                   -4.67575         133.831         -45.0318          79.572         -45.0309         79.5731       -0.0394432         138.865
0.663                   -4.79738         131.899          -44.937         77.3705          -44.936         77.3715       -0.0399493         138.769
0.664                   -4.93029          129.93         -44.8411         75.1547         -44.8402         75.1556       -0.0404647         138.673
0.665                   -5.07512         127.925         -44.7444         72.9237         -44.7435         72.9244       -0.0409898         138.577
0.666                   -5.23257         125.883         -44.6472         70.6769         -44.6464         70.6776       -0.0415247          138.48
0.667                   -5.40342         123.805         -44.5497         68.4138         -44.5489         68.4144       -0.0420697         138.383
0.668                    -5.5885          121.69         -44.4522          66.134         -44.4514         66.1345       -0.0426248         138.285
0.669                   -5.78873         119.539          -44.355         63.8374         -44.3542         63.8379       -0.0431905         138.187
0.67                    -6.00512         117.353         -44.2583         61.5239         -44.2576         61.5244       -0.0437668         138.088
0.671                   -6.23876         115.131         -44.1624         59.1938         -44.1618         59.1942        -0.044354         137.989
0.672                   -6.49085         112.875         -44.0677         56.8473         -44.0671         56.8476       -0.0449523         137.889
0.673                   -6.76272         110.586         -43.9744         54.4849         -43.9738         54.4853        -0.045562         137.789
0.674                   -7.05582         108.264         -43.8828         52.1074         -43.8823         52.1078       -0.0461834         137.688
0.675                   -7.37178         105.911         -43.7932         49.7158         -43.7927         49.7162       -0.0468166         137.587
0.676                   -7.71239         103.528         -43.7058          47.311         -43.7053         47.3115       -0.0474619         137.485
0.677                   -8.07967         101.117         -43.6208         44.8944         -43.6204         44.8949       -0.0481197         137.383
0.678                   -8.47589         98.6792         -43.5386         42.4674         -43.5382          42.468       -0.0487901          137.28
0.679                   -8.90366         96.2174         -43.4592         40.0317         -43.4589         40.0323       -0.0494735         137.177
0.68                    -9.36596         93.7336          -43.383         37.5889         -43.3827         37.5897       -0.0501701         137.073
0.681                   -9.86623         91.2303           -43.31          35.141         -43.3097         35.1419       -0.0508802         136.968
0.682                   -10.4086         88.7103         -43.2403         32.6901         -43.2401          32.691       -0.0516041         136.863
0.683                   -10.9978         86.1766         -43.1742         30.2381         -43.1739         30.2391       -0.0523423         136.757
0.684                   -11.6398         83.6325         -43.1115         27.7872         -43.1113         27.7883       -0.0530949         136.651
0.685                   -12.3418         81.0819         -43.0525         25.3397         -43.0523         25.3409       -0.0538623         136.544
0.686                   -13.1129         78.5288         -42.9969         22.8978         -42.9968          22.899       -0.0546448         136.437
0.687                   -13.9646         75.9782         -42.9449         20.4636         -42.9448         20.4649       -0.0554429         136.328
0.688                   -14.9121         73.4359         -42.8964         18.0394         -42.8963         18.0407       -0.0562568          136.22
0.689                   -15.9761         70.9096         -42.8512         15.6271         -42.8511         15.6285       -0.0570869          136.11
0.69                    -17.1854         68.4094         -42.8092         13.2289         -42.8091         13.2303       -0.0579337             136
0.691                   -18.5822         65.9507         -42.7702         10.8467         -42.7701          10.848       -0.0587975         135.889
0.692                   -20.2321         63.5592         -42.7341         8.48212         -42.7341          8.4835       -0.0596788         135.778
0.693                   -22.2449         61.2837         -42.7007         6.13694         -42.7006          6.1383       -0.0605779         135.666
0.694                   -24.8264         59.2348         -42.6697         3.81259         -42.6696         3.81392       -0.0614953         135.553
0.695                   -28.4381         57.7407         -42.6408          1.5104         -42.6407         1.51167       -0.0624315         135.439
0.696                   -34.5398         58.4285         -42.6138       -0.768498         -42.6137       -0.767293       -0.0633869         135.325