! TOUCHSTONE file generated by CST MICROWAVE STUDIO
! Date and time: Fri Dec 11 14:16:11 2020
! Project name: Scenario_1_Planar_Body_Tissue_Out_of_Line_v2.cst
! Parameters = {dy1=173; L_HA=400; Ltissue=700; MT=2.54; Rad_Dielectric=30; Rad_Lower=7.3; Rad_Upper=30; Wtissue=700; a_HA=580; a_WG=246; b_HA=500; b_WG=121; c_HA=0; c_WG=187; d_feed=85; dx1=520; h_feed=15; h_lower=18; h_upper=40; hfat=3; hgap=25; hmuscle=50; hskin=1.5}
! Header version: 2018
! Port assignment regex: !\s*Touchstone port\s*([0-9]+)\s*=\s*(CST MWS port|CST DS port)\s*([0-9]+|Zmin|Zmax)\s*\(\"(.*)\"\)(\s*mode\s*([0-9]+))?.*
! Touchstone port assignment:
! Touchstone port 1 = CST MWS port 1 ("")
! Touchstone port 2 = CST MWS port 2 ("")
# GHz S DB R 50
0.5                   -0.0842283        -121.946          -62.624        -59.8801         -62.6235        -59.8788      -0.00736577          151.15
0.501                 -0.0837305        -122.412         -62.3829         -60.893         -62.3824        -60.8916      -0.00749036         151.085
0.502                 -0.0834892        -122.882          -62.139        -61.9245         -62.1385        -61.9229      -0.00761649          151.02
0.503                 -0.0835279        -123.357         -61.8922        -62.9752         -61.8917        -62.9735      -0.00774429         150.955
0.504                 -0.0838724        -123.837         -61.6424         -64.046         -61.6419        -64.0442      -0.00787388         150.889
0.505                 -0.0845514        -124.323         -61.3895        -65.1378          -61.389        -65.1359      -0.00800538         150.824
0.506                 -0.0855963        -124.813         -61.1336        -66.2515         -61.1331        -66.2495      -0.00813892         150.759
0.507                 -0.0870419        -125.309         -60.8745         -67.388          -60.874         -67.386      -0.00827461         150.693
0.508                 -0.0889265        -125.811         -60.6122        -68.5485         -60.6118        -68.5464      -0.00841254         150.627
0.509                 -0.0912925        -126.318         -60.3468         -69.734         -60.3463        -69.7318      -0.00855278         150.562
0.51                  -0.0941866        -126.831          -60.078        -70.9458         -60.0776        -70.9435      -0.00869539         150.496
0.511                 -0.0976603         -127.35          -59.806         -72.185         -59.8055        -72.1827      -0.00884035          150.43
0.512                  -0.101771        -127.876         -59.5306        -73.4531         -59.5302        -73.4508      -0.00898759         150.364
0.513                   -0.10658        -128.407         -59.2519        -74.7516         -59.2515        -74.7492      -0.00913697         150.298
0.514                  -0.112158        -128.945         -58.9699        -76.0818         -58.9694        -76.0795      -0.00928824         150.232
0.515                   -0.11858        -129.489         -58.6845        -77.4456          -58.684        -77.4432      -0.00944102         150.165
0.516                   -0.12593         -130.04         -58.3957        -78.8446         -58.3952        -78.8423      -0.00959481         150.099
0.517                    -0.1343        -130.597         -58.1035        -80.2808          -58.103        -80.2784      -0.00974892         150.032
0.518                  -0.143789        -131.161          -57.808         -81.756         -57.8076        -81.7536       -0.0099025         149.966
0.519                  -0.154509        -131.731         -57.5093        -83.2724         -57.5088          -83.27       -0.0100545         149.899
0.52                   -0.166576        -132.307         -57.2074        -84.8322         -57.2069        -84.8299       -0.0102037         149.832
0.521                  -0.180121         -132.89         -56.9023        -86.4378         -56.9018        -86.4355       -0.0103488         149.765
0.522                  -0.195282        -133.478         -56.5942        -88.0916         -56.5938        -88.0893       -0.0104884         149.698
0.523                  -0.212207        -134.072         -56.2833        -89.7963         -56.2829        -89.7941       -0.0106211          149.63
0.524                  -0.231052         -134.67         -55.9697        -91.5546         -55.9693        -91.5524       -0.0107455         149.563
0.525                  -0.251982        -135.273         -55.6537        -93.3693         -55.6532        -93.3673       -0.0108607         149.495
0.526                  -0.275166        -135.879         -55.3354        -95.2435          -55.335        -95.2415       -0.0109659         149.428
0.527                  -0.300774        -136.487         -55.0153        -97.1802         -55.0148        -97.1783       -0.0110607          149.36
0.528                  -0.328976        -137.097         -54.6936        -99.1826         -54.6932        -99.1808       -0.0111453         149.292
0.529                  -0.359933        -137.705         -54.3709        -101.254         -54.3705        -101.252       -0.0112203         149.224
0.53                   -0.393792        -138.311         -54.0476        -103.397         -54.0472        -103.395       -0.0112867         149.156
0.531                  -0.430673        -138.911         -53.7243        -105.615         -53.7238        -105.614       -0.0113457         149.088
0.532                  -0.470662        -139.505         -53.4016        -107.912         -53.4012        -107.911       -0.0113989          149.02
0.533                  -0.513798        -140.088         -53.0803         -110.29         -53.0799        -110.288       -0.0114477         148.952
0.534                  -0.560054        -140.658         -52.7613        -112.751         -52.7609         -112.75       -0.0114938         148.883
0.535                  -0.609326        -141.211         -52.4454        -115.298          -52.445        -115.297       -0.0115386         148.815
0.536                  -0.661415        -141.744         -52.1338        -117.933         -52.1334        -117.932       -0.0115834         148.747
0.537                  -0.716014        -142.253         -51.8274        -120.657         -51.8271        -120.656       -0.0116291         148.678
0.538                  -0.772695        -142.734         -51.5277         -123.47         -51.5273        -123.469       -0.0116767          148.61
0.539                  -0.830907        -143.185         -51.2357        -126.371         -51.2354         -126.37       -0.0117269         148.542
0.54                   -0.889972        -143.603          -50.953        -129.359         -50.9527        -129.359         -0.01178         148.473
0.541                  -0.949104        -143.985         -50.6808        -132.431         -50.6806        -132.431       -0.0118364         148.404
0.542                   -1.00742        -144.332         -50.4207        -135.583         -50.4204        -135.583       -0.0118963         148.336
0.543                     -1.064        -144.642         -50.1739         -138.81         -50.1736         -138.81       -0.0119598         148.267
0.544                   -1.11789        -144.918         -49.9417        -142.104         -49.9415        -142.104       -0.0120269         148.198
0.545                   -1.16818        -145.162         -49.7255        -145.457         -49.7253        -145.457       -0.0120975         148.129
0.546                   -1.21405        -145.378         -49.5261        -148.859         -49.5259         -148.86       -0.0121716          148.06
0.547                   -1.25481        -145.572         -49.3445          -152.3         -49.3444        -152.301       -0.0122491         147.991
0.548                   -1.28993        -145.749         -49.1813        -155.768         -49.1812        -155.768       -0.0123298         147.921
0.549                   -1.31909        -145.915         -49.0369         -159.25         -49.0369         -159.25       -0.0124137         147.852
0.55                    -1.34216        -146.077         -48.9114        -162.734         -48.9114        -162.734       -0.0125005         147.782
0.551                   -1.35922        -146.241         -48.8046        -166.207         -48.8045        -166.207       -0.0125901         147.713
0.552                   -1.37049        -146.414          -48.716        -169.656          -48.716        -169.656       -0.0126825         147.643
0.553                   -1.37638          -146.6         -48.6449         -173.07         -48.6449        -173.071       -0.0127774         147.573
0.554                   -1.37736        -146.804         -48.5905        -176.439         -48.5905        -176.439       -0.0128749         147.503
0.555                   -1.37401         -147.03         -48.5515        -179.753         -48.5516        -179.753       -0.0129747         147.433
0.556                   -1.36693        -147.279         -48.5268         176.996         -48.5269         176.996       -0.0130769         147.363
0.557                   -1.35673        -147.555          -48.515         173.814         -48.5151         173.815       -0.0131812         147.293
0.558                   -1.34399        -147.857         -48.5147         170.708         -48.5149         170.708       -0.0132877         147.222
0.559                   -1.32927        -148.186         -48.5245          167.68         -48.5246          167.68       -0.0133963         147.151
0.56                    -1.31308        -148.543          -48.543         164.733         -48.5431         164.733       -0.0135069         147.081
0.561                   -1.29588        -148.927         -48.5687         161.868         -48.5688         161.869       -0.0136195          147.01
0.562                   -1.27807        -149.337         -48.6004         159.087         -48.6006         159.087        -0.013734         146.939
0.563                      -1.26        -149.772         -48.6369         156.387         -48.6371         156.388       -0.0138504         146.868
0.564                   -1.24196        -150.231          -48.677         153.768         -48.6772         153.769       -0.0139687         146.796
0.565                    -1.2242        -150.713         -48.7198         151.228         -48.7199         151.229       -0.0140889         146.725
0.566                   -1.20692        -151.217         -48.7641         148.765         -48.7643         148.766       -0.0142109         146.654
0.567                    -1.1903        -151.741         -48.8093         146.375         -48.8095         146.376       -0.0143347         146.582
0.568                   -1.17447        -152.285         -48.8546         144.056         -48.8547         144.057       -0.0144604          146.51
0.569                   -1.15953        -152.847         -48.8992         141.804         -48.8994         141.805       -0.0145878         146.438
0.57                    -1.14558        -153.427         -48.9427         139.616         -48.9428         139.617       -0.0147171         146.366
0.571                   -1.13268        -154.023         -48.9844         137.489         -48.9846         137.491       -0.0148482         146.294
0.572                   -1.12088        -154.635          -49.024          135.42         -49.0242         135.421       -0.0149811         146.221
0.573                   -1.11023        -155.262         -49.0611         133.405         -49.0613         133.406       -0.0151159         146.149
0.574                   -1.10075        -155.903         -49.0954         131.441         -49.0955         131.442       -0.0152525         146.076
0.575                   -1.09246        -156.558         -49.1265         129.525         -49.1266         129.526       -0.0153911         146.003
0.576                   -1.08538        -157.226         -49.1542         127.654         -49.1543         127.655       -0.0155315          145.93
0.577                   -1.07953        -157.907         -49.1784         125.824         -49.1785         125.825       -0.0156738         145.857
0.578                   -1.07491          -158.6         -49.1989         124.034          -49.199         124.035       -0.0158181         145.784
0.579                   -1.07154        -159.306         -49.2155          122.28         -49.2156         122.282       -0.0159643         145.711
0.58                    -1.06941        -160.023         -49.2282         120.561         -49.2283         120.562       -0.0161126         145.637
0.581                   -1.06855        -160.752         -49.2368         118.873         -49.2369         118.874       -0.0162628         145.563
0.582                   -1.06895        -161.492         -49.2413         117.214         -49.2414         117.215       -0.0164151         145.489
0.583                   -1.07063        -162.244         -49.2417         115.582         -49.2418         115.583       -0.0165695         145.415
0.584                    -1.0736        -163.007         -49.2378         113.975         -49.2379         113.976       -0.0167261         145.341
0.585                   -1.07787        -163.781         -49.2298         112.391         -49.2299         112.392       -0.0168848         145.267
0.586                   -1.08345        -164.566         -49.2175         110.828         -49.2176         110.829       -0.0170457         145.192
0.587                   -1.09038        -165.362          -49.201         109.284         -49.2011         109.285       -0.0172088         145.117
0.588                   -1.09867        -166.169         -49.1803         107.758         -49.1804         107.759       -0.0173742         145.042
0.589                   -1.10834        -166.988         -49.1554         106.248         -49.1555         106.249        -0.017542         144.967
0.59                    -1.11942        -167.817         -49.1263         104.752         -49.1263         104.753       -0.0177121         144.892
0.591                   -1.13195        -168.658          -49.093         103.268         -49.0931          103.27       -0.0178846         144.817
0.592                   -1.14596        -169.511         -49.0556         101.796         -49.0557         101.797       -0.0180595         144.741
0.593                    -1.1615        -170.375         -49.0141         100.334         -49.0141         100.335        -0.018237         144.665
0.594                    -1.1786         -171.25         -48.9685         98.8807         -48.9685         98.8817        -0.018417         144.589
0.595                   -1.19732        -172.137         -48.9189         97.4343         -48.9189         97.4353       -0.0185995         144.513
0.596                   -1.21771        -173.037         -48.8653         95.9939         -48.8653         95.9949       -0.0187847         144.437
0.597                   -1.23984        -173.948         -48.8077         94.5583         -48.8078         94.5592       -0.0189726          144.36
0.598                   -1.26375        -174.872         -48.7463         93.1262         -48.7464         93.1271       -0.0191633         144.284
0.599                   -1.28953        -175.808          -48.681         91.6964         -48.6811         91.6973       -0.0193567         144.207
0.6                     -1.31725        -176.757         -48.6119         90.2679          -48.612         90.2688       -0.0195529          144.13
0.601                     -1.347        -177.718         -48.5391         88.8396         -48.5392         88.8405        -0.019752         144.052
0.602                   -1.37885        -178.693         -48.4627         87.4103         -48.4627         87.4112       -0.0199541         143.975
0.603                   -1.41291        -179.681         -48.3826          85.979         -48.3826         85.9798       -0.0201591         143.897
0.604                   -1.44929         179.318         -48.2989         84.5446          -48.299         84.5454       -0.0203672         143.819
0.605                   -1.48808         178.303         -48.2118         83.1061         -48.2119         83.1069       -0.0205784         143.741
0.606                   -1.52942         177.275         -48.1213         81.6625         -48.1213         81.6633       -0.0207927         143.663
0.607                   -1.57342         176.233         -48.0274         80.2128         -48.0274         80.2136       -0.0210102         143.585
0.608                   -1.62022         175.177         -47.9302         78.7559         -47.9303         78.7567        -0.021231         143.506
0.609                   -1.66998         174.107         -47.8299         77.2909           -47.83         77.2917       -0.0214551         143.427
0.61                    -1.72284         173.023         -47.7265         75.8168         -47.7265         75.8176       -0.0216825         143.348
0.611                   -1.77898         171.924           -47.62         74.3327         -47.6201         74.3334       -0.0219134         143.269
0.612                   -1.83857         170.811         -47.5107         72.8376         -47.5108         72.8383       -0.0221477         143.189
0.613                    -1.9018         169.684         -47.3985         71.3305         -47.3986         71.3312       -0.0223855         143.109
0.614                   -1.96887         168.543         -47.2837         69.8105         -47.2837         69.8112        -0.022627         143.029
0.615                   -2.04001         167.388         -47.1662         68.2767         -47.1663         68.2774        -0.022872         142.949
0.616                   -2.11544         166.219         -47.0463         66.7282         -47.0464         66.7288       -0.0231208         142.869
0.617                    -2.1954         165.036         -46.9241         65.1641         -46.9241         65.1647       -0.0233733         142.788
0.618                   -2.28016         163.839         -46.7996         63.5835         -46.7996         63.5842       -0.0236296         142.707
0.619                   -2.36999          162.63         -46.6731         61.9857         -46.6731         61.9863       -0.0238897         142.626
0.62                    -2.46518         161.409         -46.5446         60.3697         -46.5446         60.3703       -0.0241538         142.545
0.621                   -2.56604         160.175         -46.4144         58.7348         -46.4144         58.7354       -0.0244218         142.463
0.622                   -2.67289         158.931         -46.2826         57.0802         -46.2826         57.0808       -0.0246938         142.381
0.623                   -2.78609         157.676         -46.1493         55.4053         -46.1494         55.4059         -0.02497         142.299
0.624                   -2.90598         156.413         -46.0149         53.7093         -46.0149         53.7099       -0.0252502         142.217
0.625                   -3.03296         155.141         -45.8794         51.9917         -45.8794         51.9922       -0.0255346         142.134
0.626                   -3.16742         153.863         -45.7431         50.2519         -45.7431         50.2524       -0.0258233         142.051
0.627                   -3.30977         152.581         -45.6061         48.4893         -45.6061         48.4899       -0.0261163         141.968
0.628                   -3.46046         151.297         -45.4688         46.7037         -45.4688         46.7042       -0.0264136         141.885
0.629                   -3.61994         150.012         -45.3312         44.8947         -45.3313         44.8952       -0.0267154         141.801
0.63                    -3.78867         148.729         -45.1938          43.062         -45.1938         43.0625       -0.0270216         141.717
0.631                   -3.96715         147.452         -45.0566         41.2054         -45.0567         41.2059       -0.0273324         141.633
0.632                   -4.15586         146.184         -44.9201         39.3251         -44.9201         39.3255       -0.0276477         141.548
0.633                   -4.35531         144.929         -44.7843         37.4209         -44.7843         37.4214       -0.0279677         141.463
0.634                   -4.56603         143.691         -44.6496         35.4933         -44.6497         35.4937       -0.0282924         141.378
0.635                   -4.78852         142.475         -44.5163         33.5424         -44.5163         33.5427       -0.0286218         141.293
0.636                    -5.0233         141.288         -44.3846         31.5687         -44.3846         31.5691       -0.0289561         141.207
0.637                   -5.27087         140.136         -44.2548         29.5729         -44.2548         29.5733       -0.0292953         141.121
0.638                   -5.53171         139.025          -44.127         27.5558         -44.1271         27.5561       -0.0296394         141.035
0.639                   -5.80627         137.964         -44.0017         25.5182         -44.0017         25.5185       -0.0299886         140.949
0.64                    -6.09493         136.963          -43.879         23.4612          -43.879         23.4614       -0.0303429         140.862
0.641                   -6.39802         136.032         -43.7592         21.3859         -43.7592         21.3862       -0.0307023         140.775
0.642                   -6.71577         135.183         -43.6425         19.2939         -43.6425         19.2941        -0.031067         140.687
0.643                   -7.04827         134.428          -43.529         17.1865          -43.529         17.1867        -0.031437         140.599
0.644                   -7.39544         133.782         -43.4191         15.0654         -43.4191         15.0655       -0.0318124         140.511
0.645                   -7.75696         133.262         -43.3128         12.9322         -43.3128         12.9323       -0.0321933         140.423
0.646                   -8.13222         132.885         -43.2103         10.7889         -43.2103          10.789       -0.0325798         140.334
0.647                   -8.52022         132.671         -43.1118         8.63746         -43.1118         8.63752       -0.0329719         140.245
0.648                   -8.91948          132.64         -43.0173         6.47979         -43.0173         6.47982       -0.0333698         140.156
0.649                   -9.32789         132.816         -42.9268         4.31802         -42.9268         4.31801       -0.0337735         140.066
0.65                    -9.74257         133.221         -42.8406         2.15424         -42.8406         2.15421       -0.0341832         139.976
0.651                   -10.1598         133.878         -42.7584     -0.00940003         -42.7584     -0.00946522       -0.0345989         139.885
0.652                   -10.5746         134.809         -42.6804        -2.17078         -42.6804        -2.17087       -0.0350208         139.794
0.653                    -10.981          136.03         -42.6065        -4.32779         -42.6065        -4.32791        -0.035449         139.703
0.654                   -11.3719         137.555         -42.5367        -6.47837         -42.5367        -6.47852       -0.0358836         139.611
0.655                   -11.7387         139.386         -42.4707        -8.62052         -42.4707         -8.6207       -0.0363248         139.519
0.656                   -12.0725         141.511         -42.4085        -10.7523         -42.4085        -10.7525       -0.0367725         139.427
0.657                   -12.3636         143.904           -42.35         -12.872           -42.35        -12.8722       -0.0372271         139.334
0.658                   -12.6033         146.522         -42.2949        -14.9777         -42.2949         -14.978       -0.0376887         139.241
0.659                   -12.7841         149.304         -42.2432        -17.0681         -42.2432        -17.0683       -0.0381573         139.147
0.66                    -12.9011         152.175         -42.1944        -19.1415         -42.1944        -19.1418       -0.0386332         139.053
0.661                   -12.9527         155.054         -42.1486        -21.1967         -42.1486         -21.197       -0.0391166         138.959
0.662                   -12.9404         157.857         -42.1053        -23.2325         -42.1053        -23.2328       -0.0396075         138.864
0.663                    -12.869         160.511         -42.0645        -25.2479         -42.0645        -25.2483       -0.0401062         138.769
0.664                   -12.7457         162.956         -42.0257        -27.2421         -42.0257        -27.2425       -0.0406128         138.673
0.665                   -12.5791         165.149         -41.9888        -29.2143         -41.9888        -29.2147       -0.0411276         138.577
0.666                   -12.3784         167.064         -41.9536         -31.164         -41.9536        -31.1644       -0.0416508          138.48
0.667                   -12.1522         168.689         -41.9196        -33.0907         -41.9196        -33.0911       -0.0421825         138.383
0.668                   -11.9085         170.027         -41.8868        -34.9942         -41.8868        -34.9946       -0.0427231         138.285
0.669                   -11.6544         171.087         -41.8548        -36.8743         -41.8548        -36.8747       -0.0432726         138.187
0.67                    -11.3953         171.888         -41.8234        -38.7309         -41.8234        -38.7313       -0.0438314         138.089
0.671                   -11.1359         172.447         -41.7923        -40.5642         -41.7924        -40.5646       -0.0443998          137.99
0.672                   -10.8797         172.785         -41.7614        -42.3742         -41.7614        -42.3747       -0.0449778          137.89
0.673                   -10.6294         172.924         -41.7304        -44.1614         -41.7304        -44.1619       -0.0455659          137.79
0.674                   -10.3868         172.883          -41.699         -45.926          -41.699        -45.9265       -0.0461643          137.69
0.675                   -10.1533          172.68         -41.6671        -47.6686         -41.6671         -47.669       -0.0467733         137.589
0.676                   -9.92995         172.333         -41.6344        -49.3896         -41.6345          -49.39       -0.0473932         137.487
0.677                   -9.71721         171.857         -41.6009        -51.0896         -41.6009          -51.09       -0.0480243         137.385
0.678                   -9.51541         171.266         -41.5662        -52.7692         -41.5662        -52.7697       -0.0486668         137.282
0.679                   -9.32468         170.571         -41.5303        -54.4292         -41.5303        -54.4297       -0.0493212         137.179
0.68                    -9.14499         169.784         -41.4929        -56.0703         -41.4929        -56.0708       -0.0499878         137.075
0.681                    -8.9762         168.913         -41.4539        -57.6933          -41.454        -57.6937       -0.0506668         136.971
0.682                   -8.81812         167.966         -41.4133        -59.2989         -41.4133        -59.2994       -0.0513588         136.866
0.683                    -8.6705         166.952         -41.3708         -60.888         -41.3708        -60.8885        -0.052064          136.76
0.684                   -8.53304         165.875         -41.3263        -62.4615         -41.3263         -62.462       -0.0527828         136.654
0.685                   -8.40547         164.742         -41.2798        -64.0202         -41.2798        -64.0207       -0.0535156         136.547
0.686                   -8.28747         163.557         -41.2311        -65.5651         -41.2311        -65.5656       -0.0542629          136.44
0.687                   -8.17873         162.324         -41.1801         -67.097         -41.1801        -67.0974        -0.055025         136.332
0.688                   -8.07898         161.046         -41.1267        -68.6168         -41.1268        -68.6172       -0.0558024         136.223
0.689                   -7.98791         159.727          -41.071        -70.1254          -41.071        -70.1259       -0.0565955         136.114
0.69                    -7.90527         158.368         -41.0127        -71.6239         -41.0127        -71.6243       -0.0574049         136.004
0.691                   -7.83079         156.973         -40.9519         -73.113         -40.9519        -73.1135       -0.0582308         135.893
0.692                   -7.76424         155.542         -40.8885        -74.5938         -40.8885        -74.5942        -0.059074         135.782
0.693                    -7.7054         154.078         -40.8224        -76.0672         -40.8224        -76.0676       -0.0599348          135.67
0.694                   -7.65406         152.581         -40.7535         -77.534         -40.7536        -77.5344       -0.0608137         135.557
0.695                   -7.61006         151.053          -40.682        -78.9953          -40.682        -78.9957       -0.0617114         135.443
0.696                   -7.57321         149.493         -40.6077         -80.452         -40.6077        -80.4524       -0.0626284         135.329