! TOUCHSTONE file generated by CST MICROWAVE STUDIO
! Date and time: Thu Feb 18 07:36:40 2021
! Project name: Scenario_1_Planar_Body_Tissue_Out_of_Line.cst
! Parameters = {L_HA=400; Ltissue=1000; MT=2.54; Rad_Dielectric=30; Rad_Lower=7.3; Rad_Upper=30; Wtissue=1000; a_HA=580; a_WG=246; b_HA=500; b_WG=121; c_HA=0; c_WG=187; d_feed=85; dx1=346; dy1=207.6; h_feed=15; h_lower=18; h_upper=40; hfat=3; hgap=25; hmuscle=50; hskin=1.5}
! Header version: 2018
! Port assignment regex: !\s*Touchstone port\s*([0-9]+)\s*=\s*(CST MWS port|CST DS port)\s*([0-9]+|Zmin|Zmax)\s*\(\"(.*)\"\)(\s*mode\s*([0-9]+))?.*
! Touchstone port assignment:
! Touchstone port 1 = CST MWS port 1 ("")
! Touchstone port 2 = CST MWS port 2 ("")
# GHz S DB R 50
0.5                    -0.272785        -121.613         -56.8332         20.8617         -56.8331         20.8615      -0.00826384         151.143
0.501                  -0.275798        -121.983          -56.727          18.549         -56.7268         18.5487      -0.00832651         151.078
0.502                  -0.278722        -122.355         -56.6267         16.2318         -56.6265         16.2312      -0.00838937         151.013
0.503                  -0.281563        -122.731         -56.5326         13.9137         -56.5322         13.9128      -0.00845244         150.948
0.504                  -0.284323        -123.111         -56.4445         11.5981         -56.4441         11.5971      -0.00851572         150.883
0.505                  -0.287006        -123.494         -56.3624         9.28884          -56.362         9.28757      -0.00857924         150.817
0.506                  -0.289617         -123.88         -56.2864         6.98933         -56.2859         6.98786        -0.008643         150.752
0.507                   -0.29216        -124.269         -56.2161         4.70307         -56.2157         4.70142      -0.00870702         150.686
0.508                  -0.294639        -124.663         -56.1515         2.43336         -56.1511         2.43155      -0.00877132         150.621
0.509                  -0.297057        -125.059         -56.0923        0.183371         -56.0919        0.181434      -0.00883592         150.555
0.51                   -0.299421         -125.46         -56.0383        -2.04396         -56.0378        -2.04599      -0.00890081         150.489
0.511                  -0.301733        -125.863          -55.989        -4.24589         -55.9886        -4.24799      -0.00896603         150.423
0.512                  -0.303998        -126.271         -55.9443        -6.41996         -55.9439        -6.42208      -0.00903158         150.357
0.513                  -0.306221        -126.682         -55.9037        -8.56394         -55.9033        -8.56605      -0.00909749         150.291
0.514                  -0.308406        -127.097         -55.8669        -10.6759         -55.8666        -10.6779      -0.00916377         150.225
0.515                  -0.310558        -127.516         -55.8335        -12.7541         -55.8332        -12.7561      -0.00923043         150.159
0.516                  -0.312682        -127.938         -55.8031        -14.7973         -55.8028        -14.7991      -0.00929749         150.093
0.517                  -0.314783        -128.365         -55.7752        -16.8042         -55.7749        -16.8059      -0.00936497         150.026
0.518                  -0.316866        -128.795         -55.7495         -18.774         -55.7493        -18.7755      -0.00943288          149.96
0.519                  -0.318936        -129.229         -55.7256        -20.7061         -55.7254        -20.7073      -0.00950124         149.893
0.52                   -0.320998        -129.667         -55.7031           -22.6         -55.7029         -22.601      -0.00957008         149.827
0.521                  -0.323058         -130.11         -55.6816        -24.4557         -55.6815        -24.4564       -0.0096394          149.76
0.522                  -0.325122        -130.556         -55.6607        -26.2731         -55.6606        -26.2735      -0.00970923         149.693
0.523                  -0.327195        -131.007         -55.6401        -28.0524         -55.6401        -28.0524      -0.00977958         149.626
0.524                  -0.329283        -131.462         -55.6195         -29.794         -55.6195        -29.7937      -0.00985047         149.559
0.525                  -0.331392        -131.921         -55.5985        -31.4984         -55.5985        -31.4977      -0.00992193         149.492
0.526                  -0.333529        -132.385         -55.5768        -33.1662         -55.5768        -33.1652      -0.00999397         149.425
0.527                    -0.3357        -132.853         -55.5542        -34.7982         -55.5542        -34.7969       -0.0100666         149.358
0.528                  -0.337912        -133.325         -55.5303        -36.3952         -55.5303        -36.3935       -0.0101399          149.29
0.529                  -0.340173        -133.802         -55.5049        -37.9582          -55.505        -37.9561       -0.0102138         149.223
0.53                   -0.342488        -134.284         -55.4779         -39.488          -55.478        -39.4856       -0.0102883         149.155
0.531                  -0.344867        -134.771         -55.4489        -40.9859          -55.449        -40.9831       -0.0103636         149.088
0.532                  -0.347316        -135.262         -55.4179        -42.4527          -55.418        -42.4496       -0.0104395          149.02
0.533                  -0.349844        -135.758         -55.3845        -43.8897         -55.3846        -43.8862       -0.0105162         148.952
0.534                   -0.35246        -136.259         -55.3487         -45.298         -55.3488        -45.2942       -0.0105936         148.884
0.535                  -0.355172        -136.765         -55.3103        -46.6788         -55.3104        -46.6746       -0.0106718         148.816
0.536                   -0.35799        -137.277         -55.2691        -48.0332         -55.2692        -48.0287       -0.0107508         148.748
0.537                  -0.360922        -137.793         -55.2251        -49.3623         -55.2252        -49.3576       -0.0108305         148.679
0.538                   -0.36398        -138.315         -55.1781        -50.6675         -55.1782        -50.6624       -0.0109112         148.611
0.539                  -0.367174        -138.842          -55.128        -51.9497         -55.1281        -51.9444       -0.0109927         148.542
0.54                   -0.370514        -139.375         -55.0748        -53.2103         -55.0749        -53.2048       -0.0110751         148.474
0.541                  -0.374013        -139.913         -55.0184        -54.4503         -55.0184        -54.4446       -0.0111584         148.405
0.542                  -0.377683        -140.457         -54.9586         -55.671         -54.9586         -55.665       -0.0112426         148.336
0.543                  -0.381535        -141.007         -54.8954        -56.8733         -54.8955        -56.8672       -0.0113278         148.267
0.544                  -0.385584        -141.563         -54.8289        -58.0585         -54.8289        -58.0522        -0.011414         148.198
0.545                  -0.389843        -142.124         -54.7588        -59.2277         -54.7588        -59.2212       -0.0115012         148.129
0.546                  -0.394328        -142.692         -54.6852        -60.3818         -54.6852        -60.3752       -0.0115895          148.06
0.547                  -0.399054        -143.267         -54.6081        -61.5221         -54.6081        -61.5153       -0.0116788         147.991
0.548                  -0.404036        -143.848         -54.5274        -62.6495         -54.5274        -62.6426       -0.0117693         147.921
0.549                  -0.409294        -144.435         -54.4431         -63.765         -54.4431        -63.7581       -0.0118609         147.851
0.55                   -0.414844        -145.029         -54.3552        -64.8697         -54.3551        -64.8628       -0.0119536         147.782
0.551                  -0.420706         -145.63         -54.2636        -65.9646         -54.2635        -65.9576       -0.0120475         147.712
0.552                  -0.426901        -146.238         -54.1684        -67.0507         -54.1683        -67.0437       -0.0121427         147.642
0.553                   -0.43345        -146.853         -54.0695        -68.1289         -54.0693        -68.1219       -0.0122391         147.572
0.554                  -0.440376        -147.475         -53.9669        -69.2003         -53.9667        -69.1932       -0.0123368         147.502
0.555                  -0.447704        -148.105         -53.8606        -70.2656         -53.8605        -70.2586       -0.0124359         147.431
0.556                  -0.455459        -148.742         -53.7507        -71.3259         -53.7505         -71.319       -0.0125362         147.361
0.557                  -0.463668        -149.387         -53.6371        -72.3822         -53.6369        -72.3752        -0.012638          147.29
0.558                  -0.472362        -150.041         -53.5198        -73.4352         -53.5196        -73.4283       -0.0127412         147.219
0.559                  -0.481569        -150.702         -53.3988        -74.4859         -53.3986        -74.4792       -0.0128459         147.149
0.56                   -0.491325        -151.372         -53.2742        -75.5353         -53.2739        -75.5286       -0.0129521         147.078
0.561                  -0.501664         -152.05         -53.1459        -76.5842         -53.1456        -76.5776       -0.0130598         147.007
0.562                  -0.512623        -152.737          -53.014        -77.6335         -53.0137         -77.627       -0.0131691         146.935
0.563                  -0.524242        -153.433         -52.8784        -78.6841         -52.8781        -78.6777         -0.01328         146.864
0.564                  -0.536564        -154.139         -52.7392        -79.7368         -52.7388        -79.7306       -0.0133926         146.792
0.565                  -0.549635        -154.854         -52.5963        -80.7927          -52.596        -80.7866       -0.0135068         146.721
0.566                  -0.563504        -155.578         -52.4499        -81.8524         -52.4496        -81.8465       -0.0136228         146.649
0.567                  -0.578223        -156.312         -52.2999        -82.9171         -52.2995        -82.9113       -0.0137406         146.577
0.568                  -0.593848        -157.057         -52.1463        -83.9875         -52.1459        -83.9819       -0.0138603         146.505
0.569                  -0.610439        -157.812         -51.9892        -85.0645         -51.9888        -85.0591       -0.0139818         146.433
0.57                    -0.62806        -158.577         -51.8285        -86.1492         -51.8282        -86.1439       -0.0141052         146.361
0.571                  -0.646781        -159.354         -51.6644        -87.2423          -51.664        -87.2373       -0.0142306         146.288
0.572                  -0.666676        -160.141         -51.4967        -88.3449         -51.4964          -88.34        -0.014358         146.215
0.573                  -0.687824         -160.94         -51.3257        -89.4579         -51.3253        -89.4532       -0.0144875         146.143
0.574                  -0.710313        -161.751         -51.1511        -90.5822         -51.1507        -90.5777        -0.014619          146.07
0.575                  -0.734233        -162.574         -50.9732        -91.7189         -50.9728        -91.7146       -0.0147528         145.997
0.576                  -0.759684        -163.409          -50.792        -92.8689         -50.7916        -92.8648       -0.0148888         145.924
0.577                  -0.786774        -164.256         -50.6074        -94.0333          -50.607        -94.0294        -0.015027          145.85
0.578                  -0.815618        -165.117         -50.4195        -95.2131         -50.4191        -95.2094       -0.0151676         145.777
0.579                  -0.846341         -165.99         -50.2284        -96.4094          -50.228        -96.4058       -0.0153105         145.703
0.58                   -0.879076        -166.877         -50.0341        -97.6232         -50.0337        -97.6199       -0.0154559         145.629
0.581                  -0.913969        -167.777         -49.8367        -98.8557         -49.8363        -98.8526       -0.0156038         145.555
0.582                  -0.951177        -168.691         -49.6362        -100.108         -49.6358        -100.105       -0.0157542         145.481
0.583                  -0.990867        -169.619         -49.4327        -101.381         -49.4323        -101.379       -0.0159073         145.407
0.584                   -1.03322        -170.561         -49.2262        -102.677         -49.2259        -102.674        -0.016063         145.332
0.585                   -1.07844        -171.517          -49.017        -103.996         -49.0166        -103.994       -0.0162215         145.258
0.586                   -1.12673        -172.487         -48.8049         -105.34         -48.8046        -105.338       -0.0163827         145.183
0.587                   -1.17833        -173.473         -48.5902        -106.709         -48.5899        -106.707       -0.0165468         145.108
0.588                   -1.23348        -174.472          -48.373        -108.106         -48.3727        -108.105       -0.0167138         145.033
0.589                   -1.29245        -175.486         -48.1533        -109.532          -48.153         -109.53       -0.0168837         144.957
0.59                    -1.35553        -176.514         -47.9313        -110.988         -47.9311        -110.986       -0.0170567         144.882
0.591                   -1.42302        -177.556         -47.7072        -112.475          -47.707        -112.473       -0.0172328         144.806
0.592                   -1.49527        -178.611         -47.4811        -113.994         -47.4809        -113.993        -0.017412          144.73
0.593                   -1.57263        -179.679         -47.2533        -115.548          -47.253        -115.547       -0.0175944         144.654
0.594                   -1.65548         179.241         -47.0238        -117.138         -47.0236        -117.137       -0.0177801         144.578
0.595                   -1.74424         178.149          -46.793        -118.764         -46.7928        -118.763       -0.0179692         144.502
0.596                   -1.83936         177.048          -46.561        -120.429         -46.5608        -120.428       -0.0181615         144.425
0.597                   -1.94129         175.937         -46.3281        -122.133          -46.328        -122.133       -0.0183573         144.349
0.598                   -2.05054          174.82         -46.0947        -123.879         -46.0946        -123.878       -0.0185566         144.272
0.599                   -2.16764         173.699          -45.861        -125.667         -45.8609        -125.666       -0.0187594         144.195
0.6                     -2.29314         172.575         -45.6274        -127.498         -45.6273        -127.497       -0.0189657         144.117
0.601                   -2.42763         171.453         -45.3942        -129.374         -45.3941        -129.373       -0.0191756          144.04
0.602                   -2.57169         170.335         -45.1618        -131.295         -45.1617        -131.295       -0.0193891         143.962
0.603                   -2.72595         169.226         -44.9307        -133.262         -44.9306        -133.262       -0.0196063         143.884
0.604                   -2.89104         168.132         -44.7012        -135.277         -44.7012        -135.277       -0.0198271         143.806
0.605                   -3.06758         167.059          -44.474        -137.339         -44.4739        -137.339       -0.0200516         143.728
0.606                   -3.25617         166.013         -44.2494        -139.448         -44.2493        -139.448       -0.0202798          143.65
0.607                   -3.45739         165.002         -44.0279        -141.605         -44.0279        -141.605       -0.0205116         143.571
0.608                   -3.67176         164.037         -43.8102        -143.809         -43.8102        -143.809       -0.0207471         143.492
0.609                   -3.89969         163.127         -43.5967         -146.06         -43.5968        -146.059       -0.0209862         143.413
0.61                    -4.14149         162.285         -43.3881        -148.356         -43.3881        -148.355       -0.0212289         143.334
0.611                   -4.39728         161.525         -43.1848        -150.695         -43.1849        -150.695       -0.0214752         143.254
0.612                   -4.66693         160.862         -42.9875        -153.078         -42.9876        -153.077        -0.021725         143.175
0.613                   -4.95004         160.313         -42.7967          -155.5         -42.7968        -155.499       -0.0219782         143.095
0.614                   -5.24576         159.898         -42.6129        -157.959          -42.613        -157.959       -0.0222349         143.015
0.615                   -5.55278         159.635         -42.4366        -160.453         -42.4367        -160.452       -0.0224948         142.934
0.616                   -5.86913         159.547         -42.2683        -162.977         -42.2684        -162.977        -0.022758         142.854
0.617                   -6.19214         159.655         -42.1084        -165.528         -42.1085        -165.528       -0.0230243         142.773
0.618                   -6.51824          159.98         -41.9572        -168.103         -41.9573        -168.102       -0.0232937         142.692
0.619                    -6.8429         160.539         -41.8151        -170.695         -41.8151        -170.695       -0.0235661         142.611
0.62                    -7.16058         161.347         -41.6822        -173.301         -41.6822        -173.301       -0.0238412         142.529
0.621                   -7.46473         162.413         -41.5586        -175.917         -41.5587        -175.916       -0.0241192         142.447
0.622                     -7.748         163.735         -41.4446        -178.536         -41.4446        -178.535       -0.0243998         142.366
0.623                   -8.00256         165.301           -41.34         178.846           -41.34         178.847       -0.0246829         142.283
0.624                   -8.22064         167.083         -41.2447         176.234         -41.2447         176.234       -0.0249686         142.201
0.625                    -8.3952         169.043         -41.1585         173.632         -41.1586         173.633       -0.0252566         142.118
0.626                   -8.52065         171.126         -41.0813         171.046         -41.0814         171.046        -0.025547         142.035
0.627                   -8.59361         173.271         -41.0127         168.479         -41.0127         168.479       -0.0258397         141.952
0.628                   -8.61324         175.409         -40.9523         165.935         -40.9523         165.936       -0.0261347         141.869
0.629                   -8.58137         177.476         -40.8997         163.419         -40.8997          163.42       -0.0264319         141.785
0.63                    -8.50218         179.414         -40.8544         160.934         -40.8544         160.934       -0.0267314         141.701
0.631                   -8.38163        -178.825         -40.8159         158.481         -40.8159         158.482       -0.0270331         141.617
0.632                   -8.22673        -177.274         -40.7837         156.065         -40.7836         156.065       -0.0273373         141.532
0.633                   -8.04481        -175.952         -40.7571         153.686         -40.7571         153.686       -0.0276438         141.447
0.634                   -7.84295        -174.869         -40.7358         151.347         -40.7358         151.347       -0.0279529         141.362
0.635                   -7.62761        -174.022          -40.719         149.048          -40.719         149.048       -0.0282647         141.277
0.636                   -7.40437        -173.403         -40.7063         146.791         -40.7063         146.791       -0.0285792         141.191
0.637                   -7.17788        -172.998         -40.6971         144.576         -40.6971         144.576       -0.0288968         141.105
0.638                   -6.95186        -172.792         -40.6909         142.404         -40.6908         142.404       -0.0292175         141.019
0.639                   -6.72921        -172.766         -40.6871         140.273         -40.6871         140.273       -0.0295417         140.932
0.64                    -6.51212        -172.903         -40.6854         138.185         -40.6853         138.185       -0.0298694         140.845
0.641                   -6.30215        -173.187         -40.6852         136.138         -40.6851         136.138       -0.0302011         140.758
0.642                   -6.10042        -173.602          -40.686         134.131          -40.686         134.131       -0.0305368          140.67
0.643                   -5.90763        -174.133         -40.6876         132.164         -40.6876         132.164        -0.030877         140.582
0.644                   -5.72419        -174.766         -40.6896         130.236         -40.6895         130.236       -0.0312218         140.494
0.645                    -5.5503        -175.492         -40.6915         128.346         -40.6914         128.346       -0.0315716         140.405
0.646                   -5.38595        -176.298         -40.6931         126.492          -40.693         126.492       -0.0319266         140.316
0.647                   -5.23105        -177.177          -40.694         124.673          -40.694         124.673       -0.0322872         140.227
0.648                   -5.08539        -178.119         -40.6941         122.887          -40.694         122.887       -0.0326536         140.137
0.649                    -4.9487        -179.119          -40.693         121.134          -40.693         121.134       -0.0330262         140.047
0.65                     -4.8207          179.83         -40.6906         119.412         -40.6905         119.412       -0.0334051         139.956
0.651                   -4.70104         178.733         -40.6866         117.719         -40.6865         117.719       -0.0337908         139.865
0.652                    -4.5894         177.594         -40.6808         116.055         -40.6808         116.054       -0.0341834         139.774
0.653                   -4.48544         176.417         -40.6731         114.416         -40.6731         114.416       -0.0345833         139.682
0.654                   -4.38881         175.206         -40.6634         112.803         -40.6634         112.803       -0.0349907          139.59
0.655                   -4.29921         173.962         -40.6516         111.214         -40.6515         111.214        -0.035406         139.498
0.656                    -4.2163         172.689         -40.6374         109.648         -40.6373         109.647       -0.0358293         139.405
0.657                    -4.1398         171.388         -40.6208         108.102         -40.6207         108.102        -0.036261         139.312
0.658                   -4.06943          170.06         -40.6017         106.576         -40.6017         106.575       -0.0367013         139.218
0.659                   -4.00491         168.708           -40.58         105.068           -40.58         105.068       -0.0371504         139.124
0.66                    -3.94602         167.331         -40.5558         103.577         -40.5557         103.577       -0.0376087         139.029
0.661                    -3.8925         165.932         -40.5288         102.103         -40.5288         102.103       -0.0380763         138.934
0.662                   -3.84417         164.509         -40.4991         100.643          -40.499         100.642       -0.0385536         138.839
0.663                   -3.80081         163.065         -40.4665          99.196         -40.4665         99.1958       -0.0390407         138.743
0.664                   -3.76226         161.599         -40.4312         97.7616         -40.4312         97.7614       -0.0395379         138.647
0.665                   -3.72836         160.111          -40.393         96.3383          -40.393         96.3381       -0.0400455          138.55
0.666                   -3.69896         158.601          -40.352         94.9249          -40.352         94.9248       -0.0405637         138.453
0.667                   -3.67394         157.069          -40.308         93.5205          -40.308         93.5203       -0.0410927         138.355
0.668                   -3.65317         155.515         -40.2612         92.1238         -40.2612         92.1237       -0.0416328         138.257
0.669                   -3.63656         153.938         -40.2115         90.7339         -40.2115         90.7338       -0.0421843         138.158
0.67                    -3.62401         152.339         -40.1589         89.3497         -40.1588         89.3496       -0.0427474         138.059
0.671                   -3.61547         150.716         -40.1034         87.9702         -40.1033         87.9701       -0.0433224         137.959
0.672                   -3.61087         149.069          -40.045         86.5943          -40.045         86.5943       -0.0439094         137.859
0.673                   -3.61015         147.397         -39.9837         85.2212         -39.9837         85.2211       -0.0445089         137.759
0.674                   -3.61327           145.7         -39.9197         83.8498         -39.9196         83.8497        -0.045121         137.657
0.675                   -3.62023         143.977         -39.8528         82.4792         -39.8527         82.4791       -0.0457461         137.556
0.676                   -3.63099         142.226         -39.7831         81.1084         -39.7831         81.1084       -0.0463843         137.454
0.677                   -3.64556         140.448         -39.7107         79.7365         -39.7106         79.7365       -0.0470361         137.351
0.678                   -3.66394          138.64         -39.6355         78.3627         -39.6355         78.3627       -0.0477016         137.247
0.679                   -3.68614         136.803         -39.5577         76.9859         -39.5577         76.9859       -0.0483812         137.143
0.68                     -3.7122         134.934         -39.4773         75.6054         -39.4773         75.6054       -0.0490753         137.039
0.681                   -3.74215         133.032         -39.3943         74.2202         -39.3943         74.2202        -0.049784         136.934
0.682                   -3.77603         131.097         -39.3088         72.8294         -39.3088         72.8294       -0.0505077         136.828
0.683                   -3.81391         129.127         -39.2208         71.4323         -39.2208         71.4323       -0.0512469         136.722
0.684                   -3.85583          127.12         -39.1305          70.028         -39.1305          70.028       -0.0520017         136.615
0.685                   -3.90189         125.075         -39.0379         68.6156         -39.0379         68.6156       -0.0527726         136.508
0.686                   -3.95214         122.991         -38.9431         67.1943         -38.9431         67.1943       -0.0535598           136.4
0.687                    -4.0067         120.866         -38.8461         65.7635         -38.8461         65.7635       -0.0543639         136.291
0.688                   -4.06564         118.698         -38.7471         64.3222         -38.7471         64.3222       -0.0551851         136.181
0.689                   -4.12907         116.485         -38.6462         62.8697         -38.6462         62.8698       -0.0560238         136.071
0.69                     -4.1971         114.225         -38.5434         61.4054         -38.5434         61.4054       -0.0568805         135.961
0.691                   -4.26985         111.917         -38.4389         59.9285         -38.4389         59.9285       -0.0577555         135.849
0.692                   -4.34743         109.559         -38.3329         58.4384         -38.3328         58.4384       -0.0586492         135.737
0.693                   -4.42996         107.147         -38.2253         56.9344         -38.2253         56.9344       -0.0595621         135.624
0.694                   -4.51757         104.681         -38.1164          55.416         -38.1164          55.416       -0.0604947         135.511
0.695                   -4.61037         102.157         -38.0063         53.8825         -38.0063         53.8825       -0.0614472         135.397
0.696                    -4.7085         99.5726         -37.8952         52.3335         -37.8952         52.3335       -0.0624203         135.282