! TOUCHSTONE file generated by CST MICROWAVE STUDIO
! Date and time: Fri Dec 11 14:16:31 2020
! Project name: Scenario_1_Planar_Body_Tissue_Out_of_Line_v2.cst
! Parameters = {dy1=207.6; L_HA=400; Ltissue=700; MT=2.54; Rad_Dielectric=30; Rad_Lower=7.3; Rad_Upper=30; Wtissue=700; a_HA=580; a_WG=246; b_HA=500; b_WG=121; c_HA=0; c_WG=187; d_feed=85; dx1=520; h_feed=15; h_lower=18; h_upper=40; hfat=3; hgap=25; hmuscle=50; hskin=1.5}
! Header version: 2018
! Port assignment regex: !\s*Touchstone port\s*([0-9]+)\s*=\s*(CST MWS port|CST DS port)\s*([0-9]+|Zmin|Zmax)\s*\(\"(.*)\"\)(\s*mode\s*([0-9]+))?.*
! Touchstone port assignment:
! Touchstone port 1 = CST MWS port 1 ("")
! Touchstone port 2 = CST MWS port 2 ("")
# GHz S DB R 50
0.5                   -0.0877756        -121.944         -63.1714        -64.8821         -63.1705        -64.8806      -0.00735159         151.159
0.501                 -0.0909721        -122.399         -62.9614        -65.8603         -62.9605        -65.8587      -0.00741486         151.094
0.502                 -0.0943773        -122.858         -62.7476        -66.8574         -62.7467        -66.8559      -0.00747896         151.029
0.503                 -0.0980075        -123.321         -62.5299        -67.8743         -62.5291        -67.8727       -0.0075439         150.963
0.504                  -0.101881        -123.788         -62.3084        -68.9116         -62.3077        -68.9101      -0.00760971         150.898
0.505                  -0.106017        -124.258          -62.083        -69.9703         -62.0822        -69.9687       -0.0076764         150.832
0.506                  -0.110438        -124.733         -61.8536        -71.0511         -61.8529        -71.0495        -0.007744         150.766
0.507                  -0.115166        -125.212         -61.6201        -72.1549         -61.6194        -72.1534      -0.00781252         150.701
0.508                  -0.120229        -125.695         -61.3826        -73.2828         -61.3819        -73.2813        -0.007882         150.635
0.509                  -0.125653        -126.182         -61.1409        -74.4357         -61.1403        -74.4343      -0.00795247         150.569
0.51                   -0.131469        -126.674         -60.8951        -75.6149         -60.8946        -75.6135      -0.00802394         150.503
0.511                  -0.137713        -127.171         -60.6451        -76.8213         -60.6446          -76.82      -0.00809646         150.437
0.512                  -0.144419        -127.672         -60.3909        -78.0564         -60.3904        -78.0552      -0.00817005         150.371
0.513                   -0.15163        -128.178         -60.1324        -79.3214         -60.1319        -79.3203      -0.00824475         150.305
0.514                  -0.159389        -128.689         -59.8697        -80.6179         -59.8692        -80.6168       -0.0083206         150.239
0.515                  -0.167745        -129.204         -59.6026        -81.9472         -59.6022        -81.9463      -0.00839765         150.172
0.516                   -0.17675        -129.725         -59.3313        -83.3111         -59.3309        -83.3103      -0.00847594         150.106
0.517                  -0.186464         -130.25         -59.0557        -84.7114         -59.0553        -84.7107      -0.00855551         150.039
0.518                   -0.19695        -130.781         -58.7758        -86.1498         -58.7755        -86.1492      -0.00863644         149.973
0.519                  -0.208276        -131.316         -58.4918        -87.6283         -58.4915        -87.6279      -0.00871876         149.906
0.52                   -0.220518        -131.857         -58.2035         -89.149         -58.2033        -89.1488      -0.00880256         149.839
0.521                  -0.233758        -132.402         -57.9112        -90.7142          -57.911        -90.7141       -0.0088879         149.772
0.522                  -0.248084        -132.952          -57.615        -92.3263         -57.6147        -92.3263      -0.00897485         149.705
0.523                  -0.263591        -133.507         -57.3148        -93.9876         -57.3146        -93.9878       -0.0090635         149.638
0.524                  -0.280382        -134.066          -57.011        -95.7008         -57.0108        -95.7012      -0.00915394         149.571
0.525                  -0.298565        -134.629         -56.7037        -97.4687         -56.7035        -97.4692      -0.00924627         149.504
0.526                  -0.318254        -135.195         -56.3931        -99.2941         -56.3929        -99.2948      -0.00934058         149.436
0.527                  -0.339571        -135.765         -56.0795         -101.18         -56.0794        -101.181      -0.00943699         149.369
0.528                  -0.362639        -136.336         -55.7632        -103.129         -55.7631        -103.131      -0.00953562         149.301
0.529                  -0.387584         -136.91         -55.4447        -105.146         -55.4446        -105.147      -0.00963659         149.234
0.53                   -0.414532        -137.484         -55.1243        -107.232         -55.1243        -107.233      -0.00974002         149.166
0.531                  -0.443602        -138.057         -54.8027        -109.391         -54.8027        -109.392      -0.00984605         149.098
0.532                  -0.474905        -138.628         -54.4804        -111.626         -54.4804        -111.628      -0.00995481          149.03
0.533                  -0.508536        -139.195          -54.158        -113.941         -54.1581        -113.942       -0.0100664         148.962
0.534                  -0.544567        -139.757         -53.8364        -116.337         -53.8365        -116.339        -0.010181         148.894
0.535                  -0.583034        -140.311         -53.5165        -118.818         -53.5166         -118.82       -0.0102987         148.826
0.536                  -0.623932        -140.855         -53.1991        -121.386         -53.1993        -121.389       -0.0104195         148.758
0.537                  -0.667199        -141.386         -52.8854        -124.043         -52.8856        -124.045       -0.0105435         148.689
0.538                  -0.712704        -141.901         -52.5766        -126.788         -52.5768        -126.791       -0.0106708         148.621
0.539                  -0.760235        -142.398         -52.2738        -129.624          -52.274        -129.626       -0.0108012         148.552
0.54                   -0.809486        -142.873         -51.9784        -132.548         -51.9786         -132.55       -0.0109347         148.484
0.541                   -0.86005        -143.325         -51.6917        -135.559          -51.692        -135.562       -0.0110711         148.415
0.542                  -0.911415         -143.75         -51.4153        -138.655         -51.4156        -138.657       -0.0112101         148.346
0.543                  -0.962966        -144.146         -51.1504         -141.83         -51.1507        -141.832       -0.0113514         148.277
0.544                     -1.014        -144.513         -50.8986        -145.079         -50.8989        -145.081       -0.0114944         148.208
0.545                   -1.06373        -144.849          -50.661        -148.394         -50.6613        -148.396       -0.0116388         148.139
0.546                   -1.11135        -145.156          -50.439        -151.768         -50.4393         -151.77       -0.0117837          148.07
0.547                   -1.15604        -145.436         -50.2335        -155.189         -50.2338        -155.191       -0.0119287         148.001
0.548                   -1.19704         -145.69         -50.0454        -158.648         -50.0456         -158.65        -0.012073         147.931
0.549                   -1.23365        -145.924         -49.8753        -162.132         -49.8755        -162.134        -0.012216         147.862
0.55                    -1.26533        -146.142         -49.7235        -165.628         -49.7237         -165.63        -0.012357         147.793
0.551                   -1.29169        -146.351         -49.5901        -169.124         -49.5903        -169.125       -0.0124956         147.723
0.552                   -1.31252        -146.554          -49.475        -172.607         -49.4751        -172.608       -0.0126313         147.653
0.553                   -1.32782         -146.76         -49.3775        -176.065         -49.3776        -176.066       -0.0127639         147.584
0.554                   -1.33774        -146.973          -49.297        -179.486          -49.297        -179.486       -0.0128934         147.514
0.555                   -1.34259        -147.199         -49.2326         177.141         -49.2325          177.14       -0.0130198         147.444
0.556                   -1.34282        -147.442         -49.1831         173.824         -49.1829         173.823       -0.0131432         147.374
0.557                   -1.33895        -147.706         -49.1472         170.571          -49.147         170.571       -0.0132641         147.303
0.558                   -1.33157        -147.994         -49.1236          167.39         -49.1233          167.39       -0.0133827         147.233
0.559                   -1.32127        -148.308         -49.1109         164.284         -49.1105         164.284       -0.0134995         147.162
0.56                    -1.30865        -148.648         -49.1076         161.258         -49.1072         161.258       -0.0136149         147.092
0.561                   -1.29427        -149.016         -49.1124         158.313          -49.112         158.314       -0.0137295         147.021
0.562                   -1.27864         -149.41          -49.124         155.452         -49.1234         155.452       -0.0138437          146.95
0.563                   -1.26223        -149.832          -49.141         152.674         -49.1403         152.675       -0.0139579         146.879
0.564                   -1.24544        -150.279         -49.1622         149.979         -49.1615          149.98       -0.0140726         146.808
0.565                   -1.22863        -150.752         -49.1866         147.365         -49.1858         147.366       -0.0141879         146.736
0.566                   -1.21209        -151.248         -49.2131          144.83         -49.2123         144.831       -0.0143044         146.665
0.567                   -1.19606        -151.766         -49.2409         142.373         -49.2399         142.374       -0.0144222         146.593
0.568                   -1.18074        -152.306          -49.269          139.99         -49.2681         139.991       -0.0145415         146.521
0.569                   -1.16628        -152.866         -49.2969         137.678         -49.2959          137.68       -0.0146626         146.449
0.57                    -1.15282        -153.444         -49.3239         135.435         -49.3228         135.437       -0.0147856         146.377
0.571                   -1.14046         -154.04         -49.3494         133.257         -49.3483         133.259       -0.0149106         146.305
0.572                   -1.12925        -154.653          -49.373         131.142         -49.3719         131.144       -0.0150378         146.232
0.573                   -1.11926        -155.281         -49.3943         129.085         -49.3932         129.088       -0.0151672          146.16
0.574                   -1.11053        -155.924          -49.413         127.086         -49.4119         127.089       -0.0152989         146.087
0.575                   -1.10307        -156.581         -49.4289         125.139         -49.4277         125.143        -0.015433         146.014
0.576                   -1.09692        -157.252         -49.4417         123.244         -49.4406         123.248       -0.0155695         145.941
0.577                   -1.09209        -157.935         -49.4514         121.396         -49.4503         121.401       -0.0157084         145.868
0.578                   -1.08857        -158.631         -49.4578         119.594         -49.4568         119.599       -0.0158498         145.795
0.579                   -1.08637        -159.339          -49.461         117.835         -49.4601          117.84       -0.0159937         145.721
0.58                     -1.0855        -160.058         -49.4611         116.116         -49.4603         116.122       -0.0161401         145.648
0.581                   -1.08596        -160.789          -49.458         114.436         -49.4574         114.441        -0.016289         145.574
0.582                   -1.08775        -161.531          -49.452         112.791         -49.4515         112.796       -0.0164405           145.5
0.583                   -1.09087        -162.283         -49.4433         111.178          -49.443         111.183       -0.0165945         145.426
0.584                   -1.09532        -163.046          -49.432         109.595         -49.4319         109.599       -0.0167511         145.352
0.585                   -1.10112         -163.82         -49.4185         108.038         -49.4185         108.041       -0.0169103         145.277
0.586                   -1.10828        -164.605         -49.4029         106.503          -49.403         106.504       -0.0170721         145.202
0.587                   -1.11681          -165.4         -49.3854         104.986         -49.3856         104.985       -0.0172365         145.128
0.588                   -1.12671        -166.205         -49.3661         103.482         -49.3664         103.479       -0.0174035         145.053
0.589                   -1.13803        -167.022          -49.345         101.985         -49.3452          101.98       -0.0175731         144.978
0.59                    -1.15076        -167.848         -49.3219         100.492         -49.3219         100.484       -0.0177455         144.902
0.591                   -1.16496        -168.686         -49.2965         98.9963         -49.2963          98.987       -0.0179205         144.827
0.592                   -1.18063        -169.534         -49.2684         97.4953         -49.2679         97.4846       -0.0180981         144.751
0.593                   -1.19783        -170.393         -49.2371         95.9859         -49.2363         95.9743       -0.0182785         144.676
0.594                   -1.21659        -171.263         -49.2021         94.4664         -49.2009         94.4545       -0.0184617           144.6
0.595                   -1.23696        -172.144         -49.1627         92.9363         -49.1611         92.9247       -0.0186475         144.523
0.596                   -1.25898        -173.036         -49.1186         91.3959         -49.1168         91.3853       -0.0188362         144.447
0.597                   -1.28272        -173.939         -49.0695         89.8467         -49.0674         89.8374       -0.0190277         144.371
0.598                   -1.30823        -174.855         -49.0152           88.29         -49.0129         88.2824       -0.0192219         144.294
0.599                   -1.33558        -175.781         -48.9556         86.7276         -48.9531         86.7217       -0.0194191         144.217
0.6                     -1.36484         -176.72         -48.8908         85.1609         -48.8883         85.1568       -0.0196191          144.14
0.601                   -1.39609        -177.671         -48.8209         83.5912         -48.8184         83.5888        -0.019822         144.063
0.602                   -1.42942        -178.634         -48.7462         82.0192         -48.7437         82.0183       -0.0200279         143.985
0.603                   -1.46491        -179.609         -48.6668         80.4454         -48.6645         80.4458       -0.0202368         143.907
0.604                   -1.50267         179.403         -48.5831         78.8698         -48.5808         78.8713       -0.0204486          143.83
0.605                    -1.5428         178.403         -48.4952         77.2921         -48.4931         77.2945       -0.0206635         143.752
0.606                   -1.58541         177.389         -48.4034          75.712         -48.4015         75.7151       -0.0208815         143.673
0.607                   -1.63064         176.363         -48.3081         74.1286         -48.3063         74.1323       -0.0211025         143.595
0.608                    -1.6786         175.324         -48.2093         72.5413         -48.2076         72.5453       -0.0213268         143.516
0.609                   -1.72945         174.272         -48.1073          70.949         -48.1058         70.9533       -0.0215542         143.437
0.61                    -1.78332         173.207         -48.0023         69.3509         -48.0009         69.3552       -0.0217848         143.358
0.611                   -1.84038         172.128         -47.8944         67.7459         -47.8932         67.7502       -0.0220187         143.279
0.612                   -1.90081         171.037          -47.784         66.1329         -47.7829         66.1373       -0.0222559         143.199
0.613                   -1.96477         169.932         -47.6711         64.5111         -47.6701         64.5153       -0.0224965          143.12
0.614                   -2.03246         168.815         -47.5559         62.8793          -47.555         62.8834       -0.0227404          143.04
0.615                    -2.1041         167.684         -47.4385         61.2367         -47.4377         61.2406       -0.0229878          142.96
0.616                   -2.17988         166.541         -47.3192         59.5823         -47.3185         59.5859       -0.0232387         142.879
0.617                   -2.26006         165.386          -47.198         57.9151         -47.1974         57.9185       -0.0234931         142.798
0.618                   -2.34485         164.219         -47.0753         56.2344         -47.0747         56.2375       -0.0237511         142.718
0.619                   -2.43454          163.04          -46.951         54.5392         -46.9505         54.5421       -0.0240127         142.636
0.62                    -2.52938         161.851         -46.8254         52.8288          -46.825         52.8315        -0.024278         142.555
0.621                   -2.62965         160.651         -46.6986         51.1026         -46.6983          51.105        -0.024547         142.474
0.622                   -2.73567         159.442         -46.5709         49.3598         -46.5706         49.3619       -0.0248199         142.392
0.623                   -2.84775         158.225         -46.4423         47.5997         -46.4421         47.6017       -0.0250965          142.31
0.624                    -2.9662         157.001         -46.3131          45.822         -46.3129         45.8237        -0.025377         142.227
0.625                   -3.09139          155.77         -46.1835          44.026         -46.1834         44.0275       -0.0256615         142.145
0.626                   -3.22366         154.536         -46.0537         42.2114         -46.0535         42.2127         -0.02595         142.062
0.627                   -3.36338         153.298         -45.9237         40.3778         -45.9236         40.3789       -0.0262425         141.979
0.628                   -3.51095         152.061          -45.794          38.525         -45.7939         38.5259       -0.0265392         141.895
0.629                   -3.66675         150.825         -45.6645         36.6528         -45.6645         36.6535         -0.02684         141.812
0.63                     -3.8312         149.593         -45.5357          34.761         -45.5356         34.7616       -0.0271451         141.728
0.631                   -4.00469         148.369         -45.4076         32.8498         -45.4076         32.8503       -0.0274545         141.644
0.632                   -4.18767         147.156         -45.2804         30.9192         -45.2805         30.9195       -0.0277682         141.559
0.633                   -4.38054         145.957         -45.1545         28.9693         -45.1545         28.9696       -0.0280864         141.475
0.634                   -4.58371         144.777           -45.03         27.0006           -45.03         27.0008       -0.0284091         141.389
0.635                   -4.79762         143.621          -44.907         25.0135         -44.9071         25.0135       -0.0287364         141.304
0.636                   -5.02264         142.494         -44.7859         23.0084          -44.786         23.0084       -0.0290683         141.219
0.637                   -5.25915         141.402         -44.6669          20.986          -44.667         20.9859       -0.0294049         141.133
0.638                    -5.5075         140.352           -44.55         18.9471         -44.5501          18.947       -0.0297463         141.046
0.639                   -5.76798         139.352         -44.4356         16.8926         -44.4357         16.8924       -0.0300926          140.96
0.64                    -6.04083         138.409         -44.3238         14.8233          -44.324         14.8231       -0.0304438         140.873
0.641                    -6.3262         137.532         -44.2148         12.7405         -44.2149         12.7402       -0.0308001         140.786
0.642                   -6.62415         136.733         -44.1088         10.6452         -44.1089          10.645       -0.0311615         140.699
0.643                   -6.93461         136.022         -44.0058         8.53888         -44.0059         8.53863        -0.031528         140.611
0.644                   -7.25732         135.412          -43.906         6.42279         -43.9061         6.42254       -0.0318999         140.523
0.645                   -7.59184         134.916         -43.8096         4.29842         -43.8097         4.29817       -0.0322771         140.434
0.646                   -7.93745         134.548         -43.7166          2.1673         -43.7167         2.16706       -0.0326598         140.346
0.647                    -8.2931         134.325         -43.6272       0.0310242         -43.6273        0.030786        -0.033048         140.256
0.648                   -8.65734         134.262         -43.5413        -2.10878         -43.5414        -2.10901        -0.033442         140.167
0.649                   -9.02826         134.376          -43.459        -4.25045         -43.4591        -4.25067       -0.0338417         140.077
0.65                    -9.40337         134.685         -43.3804        -6.39229         -43.3805        -6.39249       -0.0342473         139.987
0.651                    -9.7795         135.205         -43.3054         -8.5326         -43.3054        -8.53279       -0.0346588         139.897
0.652                   -10.1528          135.95          -43.234        -10.6697          -43.234        -10.6699       -0.0350765         139.806
0.653                   -10.5185         136.932         -43.1661        -12.8019         -43.1662        -12.8021       -0.0355004         139.714
0.654                   -10.8713          138.16         -43.1018        -14.9277         -43.1018        -14.9278       -0.0359307         139.623
0.655                   -11.2049         139.632         -43.0408        -17.0453         -43.0408        -17.0454       -0.0363675         139.531
0.656                   -11.5127         141.342         -42.9831        -19.1533         -42.9831        -19.1535       -0.0368109         139.438
0.657                   -11.7879         143.272         -42.9286        -21.2503         -42.9286        -21.2505        -0.037261         139.346
0.658                    -12.024         145.391         -42.8771        -23.3349         -42.8771         -23.335       -0.0377181         139.252
0.659                   -12.2152          147.66         -42.8285        -25.4058         -42.8284        -25.4059       -0.0381822         139.159
0.66                    -12.3572         150.027         -42.7826        -27.4618         -42.7825        -27.4619       -0.0386535         139.065
0.661                   -12.4477         152.436         -42.7392        -29.5018         -42.7391        -29.5019       -0.0391323          138.97
0.662                   -12.4865         154.828         -42.6981        -31.5249         -42.6981         -31.525       -0.0396186         138.876
0.663                   -12.4754         157.143         -42.6592        -33.5302         -42.6591        -33.5303       -0.0401127          138.78
0.664                   -12.4184         159.332         -42.6223         -35.517         -42.6222        -35.5171       -0.0406147         138.685
0.665                   -12.3207         161.352          -42.587        -37.4845         -42.5869        -37.4847       -0.0411249         138.588
0.666                   -12.1885         163.173         -42.5533        -39.4324         -42.5532        -39.4325       -0.0416434         138.492
0.667                   -12.0283         164.774         -42.5209          -41.36         -42.5208        -41.3602       -0.0421705         138.395
0.668                   -11.8465         166.147         -42.4896        -43.2672         -42.4894        -43.2674       -0.0427064         138.297
0.669                    -11.649         167.289         -42.4591        -45.1537          -42.459        -45.1539       -0.0432514         138.199
0.67                     -11.441         168.207         -42.4294        -47.0193         -42.4292        -47.0196       -0.0438056           138.1
0.671                   -11.2269         168.909         -42.4001        -48.8641         -42.3999        -48.8643       -0.0443694         138.001
0.672                   -11.0106         169.409         -42.3711         -50.688         -42.3709        -50.6883        -0.044943         137.902
0.673                    -10.795         169.721         -42.3421        -52.4912          -42.342        -52.4915       -0.0455268         137.802
0.674                   -10.5824         169.859         -42.3131        -54.2739         -42.3129        -54.2742       -0.0461209         137.701
0.675                   -10.3748         169.839         -42.2837        -56.0364         -42.2835        -56.0367       -0.0467257           137.6
0.676                   -10.1736         169.673         -42.2538         -57.779         -42.2537        -57.7793       -0.0473416         137.499
0.677                   -9.97967         169.376         -42.2233        -59.5021         -42.2232        -59.5024       -0.0479688         137.397
0.678                   -9.79381          168.96          -42.192        -61.2061         -42.1919        -61.2064       -0.0486076         137.294
0.679                    -9.6165         168.436         -42.1597        -62.8915         -42.1596        -62.8919       -0.0492585         137.191
0.68                    -9.44804         167.813         -42.1263         -64.559         -42.1262        -64.5593       -0.0499219         137.087
0.681                   -9.28858         167.101         -42.0917         -66.209         -42.0915        -66.2093        -0.050598         136.982
0.682                   -9.13818         166.308         -42.0556        -67.8421         -42.0554        -67.8424       -0.0512873         136.877
0.683                   -8.99679         165.441          -42.018        -69.4591         -42.0178        -69.4594       -0.0519901         136.772
0.684                   -8.86434         164.506         -41.9787        -71.0606         -41.9785        -71.0609        -0.052707         136.666
0.685                   -8.74069         163.508         -41.9377        -72.6473         -41.9375        -72.6476       -0.0534382         136.559
0.686                   -8.62568         162.453         -41.8948        -74.2199         -41.8946        -74.2201       -0.0541843         136.451
0.687                   -8.51914         161.345         -41.8499        -75.7791         -41.8498        -75.7794       -0.0549458         136.343
0.688                   -8.42087         160.188          -41.803        -77.3258         -41.8028         -77.326       -0.0557229         136.235
0.689                   -8.33069         158.984         -41.7539        -78.8606         -41.7537        -78.8609       -0.0565164         136.125
0.69                    -8.24841         157.737         -41.7026        -80.3845         -41.7024        -80.3847       -0.0573265         136.015
0.691                   -8.17385         156.449         -41.6489        -81.8981         -41.6488        -81.8983       -0.0581539         135.904
0.692                   -8.10683         155.121         -41.5929        -83.4023         -41.5928        -83.4024       -0.0589991         135.793
0.693                   -8.04719         153.757         -41.5345        -84.8979         -41.5344         -84.898       -0.0598625         135.681
0.694                   -7.99478         152.356         -41.4736        -86.3858         -41.4735        -86.3859       -0.0607447         135.568
0.695                   -7.94946         150.921         -41.4101        -87.8667           -41.41        -87.8668       -0.0616463         135.454
0.696                   -7.91112         149.452         -41.3441        -89.3416          -41.344        -89.3416       -0.0625678          135.34