! TOUCHSTONE file generated by CST MICROWAVE STUDIO
! Date and time: Tue Nov 24 13:45:50 2020
! Project name: Scenario_1_Planar_Body_Tissue_Out_of_Line.cst
! Parameters = {dy1=207.6; L_HA=400; Ltissue=700; MT=2.54; Rad_Dielectric=30; Rad_Lower=7.3; Rad_Upper=30; Wtissue=700; a_HA=580; a_WG=246; b_HA=500; b_WG=121; c_HA=0; c_WG=187; d_feed=85; dx1=1039; h_feed=15; h_lower=18; h_upper=40; hfat=3; hgap=25; hmuscle=50; hskin=1.5}
! Header version: 2018
! Port assignment regex: !\s*Touchstone port\s*([0-9]+)\s*=\s*(CST MWS port|CST DS port)\s*([0-9]+|Zmin|Zmax)\s*\(\"(.*)\"\)(\s*mode\s*([0-9]+))?.*
! Touchstone port assignment:
! Touchstone port 1 = CST MWS port 1 ("")
! Touchstone port 2 = CST MWS port 2 ("")
# GHz S DB R 50
0.5                    -0.150196         -121.66         -64.9052        -23.0065         -64.9048        -23.0056       -0.0076282         151.154
0.501                  -0.152446        -122.089         -64.8162        -25.1411         -64.8187        -25.1093      -0.00769151         151.089
0.502                  -0.154772        -122.521         -64.7297        -27.2861         -64.7339        -27.2317       -0.0077555         151.024
0.503                  -0.157179        -122.956         -64.6459        -29.4381         -64.6506        -29.3705      -0.00782017         150.958
0.504                  -0.159676        -123.394         -64.5648        -31.5932         -64.5691        -31.5232      -0.00788553         150.893
0.505                  -0.162269        -123.836         -64.4864        -33.7473         -64.4896        -33.6869      -0.00795159         150.828
0.506                  -0.164968        -124.281         -64.4107        -35.8962         -64.4122        -35.8584      -0.00801836         150.762
0.507                   -0.16778         -124.73         -64.3374        -38.0354          -64.337        -38.0341      -0.00808585         150.696
0.508                  -0.170716        -125.182         -64.2662        -40.1605         -64.2642          -40.21      -0.00815408         150.631
0.509                  -0.173785        -125.638         -64.1969        -42.2671         -64.1938        -42.3816      -0.00822305         150.565
0.51                   -0.176998        -126.097          -64.129        -44.3509         -64.1258        -44.5444      -0.00829278         150.499
0.511                  -0.180368         -126.56          -64.062        -46.4081         -64.0599        -46.6935      -0.00836327         150.433
0.512                  -0.183908        -127.028         -63.9951         -48.435          -63.996        -48.8236      -0.00843454         150.367
0.513                   -0.18763        -127.499         -63.9276        -50.4285         -63.9336        -50.9297      -0.00850659         150.301
0.514                  -0.191551        -127.974         -63.8589        -52.3861         -63.8725        -53.0065      -0.00857945         150.234
0.515                  -0.195686        -128.453         -63.7879        -54.3062         -63.8118         -55.049      -0.00865312         150.168
0.516                  -0.200053        -128.937         -63.7138        -56.1876         -63.7509        -57.0525      -0.00872762         150.102
0.517                  -0.204672        -129.425         -63.6356        -58.0301          -63.689        -59.0129      -0.00880297         150.035
0.518                  -0.209562        -129.917         -63.5525        -59.8344         -63.6249        -60.9265      -0.00887916         149.969
0.519                  -0.214748        -130.414         -63.4633        -61.6019         -63.5577        -62.7907      -0.00895623         149.902
0.52                   -0.220253        -130.916         -63.3673        -63.3352          -63.486        -64.6039      -0.00903418         149.835
0.521                  -0.226105        -131.422         -63.2636        -65.0372         -63.4087        -66.3655      -0.00911303         149.768
0.522                  -0.232332        -131.933         -63.1514         -66.712         -63.3243        -68.0764       -0.0091928         149.702
0.523                  -0.238967         -132.45         -63.0299        -68.3642         -63.2316        -69.7388       -0.0092735         149.635
0.524                  -0.246043        -132.971         -62.8986        -69.9988         -63.1292        -71.3565      -0.00935516         149.567
0.525                    -0.2536        -133.497          -62.757        -71.6215         -63.0158        -72.9345       -0.0094378           149.5
0.526                  -0.261678        -134.028         -62.6046        -73.2384         -62.8904        -74.4794      -0.00952143         149.433
0.527                  -0.270323        -134.565         -62.4411        -74.8557         -62.7518        -75.9988      -0.00960608         149.366
0.528                  -0.279583        -135.107         -62.2665        -76.4799         -62.5994        -77.5015      -0.00969177         149.298
0.529                  -0.289513        -135.655         -62.0805        -78.1175         -62.4324        -78.9973      -0.00977854         149.231
0.53                   -0.300169        -136.208         -61.8834        -79.7749         -62.2504        -80.4962       -0.0098664         149.163
0.531                  -0.311617        -136.766         -61.6751        -81.4586         -62.0533         -82.009      -0.00995539         149.095
0.532                  -0.323924         -137.33         -61.4559        -83.1748         -61.8411        -83.5462       -0.0100456         149.027
0.533                  -0.337167          -137.9         -61.2261        -84.9297          -61.614        -85.1185       -0.0101369         148.959
0.534                  -0.351424        -138.474         -60.9862        -86.7292         -61.3726        -86.7361       -0.0102295         148.891
0.535                  -0.366785        -139.054         -60.7366         -88.579         -61.1173        -88.4086       -0.0103234         148.823
0.536                  -0.383342        -139.639         -60.4778        -90.4844         -60.8491        -90.1452       -0.0104186         148.755
0.537                  -0.401196        -140.229         -60.2104        -92.4506         -60.5689        -91.9542       -0.0105152         148.687
0.538                  -0.420453        -140.824         -59.9351        -94.4827         -60.2777        -93.8432       -0.0106133         148.618
0.539                  -0.441225        -141.422         -59.6526        -96.5853         -59.9767         -95.819       -0.0107129          148.55
0.54                    -0.46363        -142.024         -59.3636        -98.7629         -59.6671        -97.8876       -0.0108141         148.481
0.541                  -0.487788        -142.629          -59.069         -101.02         -59.3502        -100.054       -0.0109169         148.412
0.542                   -0.51382        -143.235         -58.7697         -103.36         -59.0273        -102.324       -0.0110215         148.343
0.543                  -0.541849        -143.843         -58.4667        -105.786            -58.7          -104.7       -0.0111279         148.274
0.544                  -0.571989        -144.451          -58.161        -108.303         -58.3697        -107.185       -0.0112362         148.205
0.545                  -0.604348        -145.058         -57.8536        -110.913         -58.0378        -109.782       -0.0113466         148.136
0.546                  -0.639015        -145.661         -57.5459        -113.618          -57.706        -112.493        -0.011459         148.067
0.547                  -0.676058        -146.259         -57.2389         -116.42         -57.3759        -115.317       -0.0115737         147.997
0.548                   -0.71551        -146.851         -56.9342        -119.321         -57.0491        -118.255       -0.0116907         147.928
0.549                  -0.757363        -147.433          -56.633        -122.321         -56.7273        -121.306       -0.0118101         147.858
0.55                   -0.801552        -148.003         -56.3369         -125.42         -56.4122        -124.467       -0.0119319         147.788
0.551                  -0.847946        -148.559         -56.0473        -128.615         -56.1056        -127.735       -0.0120562         147.718
0.552                  -0.896331        -149.097         -55.7659        -131.905          -55.809        -131.105        -0.012183         147.648
0.553                  -0.946402        -149.615         -55.4941        -135.285         -55.5242         -134.57       -0.0123121         147.578
0.554                  -0.997751         -150.11         -55.2335         -138.75         -55.2528        -138.124       -0.0124435         147.508
0.555                   -1.04987         -150.58         -54.9855        -142.293         -54.9962        -141.757        -0.012577         147.438
0.556                   -1.10213        -151.022         -54.7516        -145.907         -54.7556        -145.459       -0.0127124         147.367
0.557                   -1.15383        -151.437         -54.5329        -149.581         -54.5322        -149.218       -0.0128494         147.297
0.558                   -1.20419        -151.823         -54.3305        -153.305         -54.3268        -153.022       -0.0129877         147.226
0.559                   -1.25239        -152.181         -54.1452        -157.068         -54.1401        -156.858       -0.0131268         147.156
0.56                    -1.29761        -152.513         -53.9775        -160.857         -53.9723        -160.713       -0.0132665         147.085
0.561                   -1.33907        -152.823         -53.8278        -164.659         -53.8236        -164.572       -0.0134065         147.014
0.562                   -1.37609        -153.114          -53.696        -168.461         -53.6935        -168.422       -0.0135463         146.943
0.563                   -1.40813        -153.392         -53.5819        -172.251         -53.5816        -172.251        -0.013686         146.871
0.564                   -1.43481        -153.663         -53.4849        -176.016         -53.4871        -176.047       -0.0138252           146.8
0.565                   -1.45596        -153.933         -53.4043        -179.746         -53.4089        -179.798        -0.013964         146.729
0.566                   -1.47161        -154.209          -53.339          176.57          -53.346         176.503       -0.0141023         146.657
0.567                   -1.48197        -154.496          -53.288         172.941         -53.2971         172.865       -0.0142404         146.585
0.568                    -1.4874        -154.799         -53.2499         169.374         -53.2606         169.295       -0.0143783         146.514
0.569                   -1.48842        -155.124         -53.2234         165.875         -53.2354         165.798       -0.0145161         146.442
0.57                    -1.48561        -155.474         -53.2072         162.448         -53.2198         162.376       -0.0146542         146.369
0.571                   -1.47963        -155.852         -53.1998         159.097         -53.2126         159.032       -0.0147928         146.297
0.572                   -1.47114         -156.26         -53.1999         155.823         -53.2123         155.767       -0.0149319         146.225
0.573                   -1.46079        -156.699         -53.2062         152.628         -53.2178         152.582       -0.0150719         146.152
0.574                   -1.44919        -157.169         -53.2174         149.512         -53.2277         149.475       -0.0152129          146.08
0.575                   -1.43691         -157.67         -53.2324         146.472         -53.2411         146.445       -0.0153551         146.007
0.576                   -1.42445        -158.201         -53.2501         143.509         -53.2569         143.491       -0.0154987         145.934
0.577                   -1.41225        -158.761         -53.2695         140.619         -53.2741         140.609       -0.0156437          145.86
0.578                   -1.40068         -159.35         -53.2898           137.8         -53.2921         137.797       -0.0157902         145.787
0.579                   -1.39008        -159.965         -53.3101          135.05         -53.3099         135.051       -0.0159385         145.714
0.58                    -1.38071        -160.606         -53.3297         132.364         -53.3271         132.369       -0.0160885          145.64
0.581                    -1.3728        -161.271         -53.3481          129.74         -53.3429         129.747       -0.0162404         145.566
0.582                   -1.36652        -161.958         -53.3647         127.175         -53.3569         127.183       -0.0163941         145.492
0.583                   -1.36202        -162.667         -53.3789         124.664         -53.3688         124.671       -0.0165498         145.418
0.584                   -1.35944        -163.396         -53.3904         122.205          -53.378          122.21       -0.0167075         145.344
0.585                   -1.35887        -164.144         -53.3989         119.794         -53.3842         119.797       -0.0168673         145.269
0.586                   -1.36041         -164.91         -53.4039         117.428         -53.3872         117.426       -0.0170291         145.195
0.587                   -1.36412        -165.694         -53.4053         115.104         -53.3868         115.097       -0.0171931          145.12
0.588                   -1.37008        -166.494         -53.4028         112.818         -53.3826         112.806       -0.0173592         145.045
0.589                   -1.37834        -167.309         -53.3963         110.568         -53.3746         110.549       -0.0175275          144.97
0.59                    -1.38897         -168.14         -53.3856          108.35         -53.3626         108.324       -0.0176981         144.895
0.591                   -1.40204        -168.986         -53.3705         106.161         -53.3465         106.129       -0.0178709         144.819
0.592                    -1.4176        -169.845         -53.3509             104         -53.3261          103.96       -0.0180461         144.743
0.593                   -1.43571        -170.718         -53.3269         101.862         -53.3014         101.815       -0.0182235         144.668
0.594                   -1.45646        -171.605         -53.2983         99.7467         -53.2724         99.6922       -0.0184034         144.592
0.595                   -1.47992        -172.504          -53.265         97.6501          -53.239         97.5885       -0.0185857         144.515
0.596                   -1.50617        -173.415         -53.2271         95.5702         -53.2011         95.5018       -0.0187704         144.439
0.597                    -1.5353        -174.339         -53.1846         93.5047         -53.1587         93.4298       -0.0189577         144.363
0.598                   -1.56742        -175.275         -53.1374         91.4514         -53.1118         91.3704       -0.0191475         144.286
0.599                   -1.60264        -176.222         -53.0855          89.408         -53.0605         89.3215       -0.0193399         144.209
0.6                     -1.64106         -177.18         -53.0291         87.3724         -53.0048         87.2809        -0.019535         144.132
0.601                   -1.68283        -178.148         -52.9681         85.3426         -52.9446         85.2467       -0.0197328         144.054
0.602                   -1.72807        -179.127         -52.9026         83.3164           -52.88          83.217       -0.0199333         143.977
0.603                   -1.77694         179.884         -52.8327          81.292         -52.8111         81.1897       -0.0201368         143.899
0.604                   -1.82959         178.887         -52.7584         79.2674         -52.7379         79.1629       -0.0203431         143.821
0.605                   -1.88619         177.881         -52.6797         77.2407         -52.6605         77.1349       -0.0205524         143.743
0.606                   -1.94692         176.867         -52.5969         75.2101         -52.5789         75.1038       -0.0207647         143.665
0.607                   -2.01196         175.847         -52.5101         73.1739         -52.4933         73.0677       -0.0209801         143.586
0.608                    -2.0815         174.821         -52.4192         71.1301         -52.4038          71.025       -0.0211988         143.508
0.609                   -2.15574          173.79         -52.3245         69.0772         -52.3105         68.9739       -0.0214207         143.429
0.61                     -2.2349         172.756         -52.2262         67.0135         -52.2135         66.9128        -0.021646         143.349
0.611                   -2.31919          171.72         -52.1243         64.9375          -52.113           64.84       -0.0218747          143.27
0.612                   -2.40881         170.684         -52.0191         62.8474         -52.0091         62.7538       -0.0221069          143.19
0.613                   -2.50398          169.65         -51.9107         60.7419          -51.902         60.6529       -0.0223427         143.111
0.614                   -2.60491          168.62         -51.7994         58.6196         -51.7919         58.5357       -0.0225821          143.03
0.615                   -2.71181         167.596         -51.6854         56.4791         -51.6789         56.4008       -0.0228253          142.95
0.616                   -2.82485         166.582         -51.5688         54.3192         -51.5634         54.2469       -0.0230724          142.87
0.617                   -2.94421         165.579           -51.45         52.1387         -51.4456         52.0727       -0.0233233         142.789
0.618                   -3.07003         164.592         -51.3292         49.9366         -51.3257         49.8772       -0.0235782         142.708
0.619                   -3.20243         163.625         -51.2067         47.7119         -51.2039         47.6593       -0.0238372         142.627
0.62                    -3.34148          162.68         -51.0827          45.464         -51.0807         45.4181       -0.0241002         142.545
0.621                   -3.48719         161.764         -50.9576          43.192         -50.9562          43.153       -0.0243674         142.464
0.622                   -3.63952         160.879         -50.8318         40.8956         -50.8308         40.8633       -0.0246388         142.382
0.623                   -3.79835         160.033         -50.7054         38.5745         -50.7048         38.5486       -0.0249145         142.299
0.624                   -3.96347         159.229         -50.5789         36.2285         -50.5786         36.2087       -0.0251945         142.217
0.625                   -4.13455         158.474         -50.4525         33.8576         -50.4524         33.8436       -0.0254788         142.134
0.626                   -4.31115         157.774         -50.3267         31.4622         -50.3267         31.4536       -0.0257676         142.051
0.627                    -4.4927         157.133         -50.2017         29.0427         -50.2018         29.0389       -0.0260608         141.968
0.628                   -4.67846          156.56         -50.0779         26.5999         -50.0779         26.6004       -0.0263584         141.884
0.629                   -4.86755         156.058         -49.9556         24.1346         -49.9555         24.1388       -0.0266605         141.801
0.63                    -5.05888         155.633         -49.8351          21.648         -49.8349         21.6553       -0.0269672         141.717
0.631                   -5.25122         155.291         -49.7167         19.1415         -49.7164         19.1512       -0.0272785         141.632
0.632                   -5.44312         155.034         -49.6007         16.6166         -49.6002         16.6281       -0.0275943         141.548
0.633                   -5.63298         154.865         -49.4873          14.075         -49.4867         14.0878       -0.0279148         141.463
0.634                   -5.81905         154.786         -49.3767         11.5188          -49.376         11.5321       -0.0282399         141.378
0.635                   -5.99946         154.797         -49.2692         8.94984         -49.2683         8.96328       -0.0285698         141.292
0.636                   -6.17226         154.893         -49.1649         6.37046         -49.1639         6.38352       -0.0289045         141.207
0.637                   -6.33549         155.072         -49.0638         3.78292         -49.0628         3.79519       -0.0292439          141.12
0.638                   -6.48726         155.325         -48.9662         1.18957         -48.9651         1.20072       -0.0295882         141.034
0.639                    -6.6258         155.643         -48.8719        -1.40718         -48.8708        -1.39742       -0.0299375         140.948
0.64                    -6.74954         156.015          -48.781        -4.00496           -48.78        -3.99677       -0.0302917         140.861
0.641                   -6.85723         156.427         -48.6935        -6.60141         -48.6927        -6.59489       -0.0306511         140.773
0.642                   -6.94794         156.864         -48.6093        -9.19424         -48.6086        -9.18942       -0.0310155         140.686
0.643                   -7.02118          157.31         -48.5282        -11.7813         -48.5277        -11.7781       -0.0313852         140.598
0.644                   -7.07684         157.748         -48.4501        -14.3605         -48.4499        -14.3588       -0.0317602          140.51
0.645                   -7.11527         158.163         -48.3748        -16.9299         -48.3749        -16.9297       -0.0321406         140.421
0.646                    -7.1372         158.539         -48.3021        -19.4878         -48.3025        -19.4888       -0.0325266         140.332
0.647                   -7.14371         158.863         -48.2318        -22.0327         -48.2325        -22.0347       -0.0329182         140.243
0.648                   -7.13616         159.122         -48.1636        -24.5633         -48.1645         -24.566       -0.0333155         140.153
0.649                   -7.11613         159.306         -48.0971        -27.0784         -48.0984        -27.0816       -0.0337187         140.063
0.65                    -7.08532         159.406         -48.0323        -29.5772         -48.0339        -29.5806        -0.034128         139.973
0.651                    -7.0455         159.418         -47.9687        -32.0589         -47.9705        -32.0623       -0.0345433         139.882
0.652                   -6.99846         159.336          -47.906        -34.5231         -47.9081        -34.5263        -0.034965         139.791
0.653                   -6.94593         159.159         -47.8441        -36.9696         -47.8463        -36.9724       -0.0353931           139.7
0.654                   -6.88955         158.885         -47.7825        -39.3983         -47.7849        -39.4005       -0.0358278         139.608
0.655                   -6.83087         158.515          -47.721        -41.8095         -47.7235        -41.8109       -0.0362692         139.516
0.656                   -6.77127          158.05         -47.6593        -44.2033         -47.6619         -44.204       -0.0367176         139.423
0.657                   -6.71204         157.493         -47.5972        -46.5803         -47.5999        -46.5803       -0.0371731          139.33
0.658                   -6.65432         156.847         -47.5344        -48.9413         -47.5371        -48.9404       -0.0376359         139.237
0.659                   -6.59911         156.113         -47.4707        -51.2869         -47.4733        -51.2852       -0.0381063         139.143
0.66                     -6.5473         155.296         -47.4059        -53.6181         -47.4084        -53.6157       -0.0385843         139.049
0.661                   -6.49968           154.4         -47.3398        -55.9358         -47.3422        -55.9329       -0.0390702         138.954
0.662                   -6.45693         153.426         -47.2722        -58.2414         -47.2744         -58.238       -0.0395642         138.859
0.663                   -6.41966          152.38          -47.203        -60.5358          -47.205        -60.5322       -0.0400666         138.764
0.664                    -6.3884         151.263          -47.132        -62.8205         -47.1338        -62.8168       -0.0405775         138.668
0.665                   -6.36365         150.078         -47.0591        -65.0967         -47.0606        -65.0931       -0.0410972         138.571
0.666                   -6.34583         148.829         -46.9842        -67.3658         -46.9855        -67.3626        -0.041626         138.474
0.667                   -6.33535         147.517         -46.9073        -69.6292         -46.9083        -69.6265       -0.0421641         138.377
0.668                   -6.33258         146.146         -46.8283        -71.8884          -46.829        -71.8864       -0.0427118         138.279
0.669                   -6.33791         144.716         -46.7471        -74.1448         -46.7475        -74.1437       -0.0432693         138.181
0.67                    -6.35167          143.23         -46.6637        -76.3998         -46.6639        -76.3998       -0.0438368         138.082
0.671                   -6.37425         141.689         -46.5782        -78.6549         -46.5781        -78.6562       -0.0444148         137.983
0.672                     -6.406         140.094         -46.4905        -80.9115         -46.4902        -80.9142       -0.0450035         137.883
0.673                   -6.44732         138.447         -46.4007         -83.171         -46.4003        -83.1753       -0.0456032         137.783
0.674                   -6.49861         136.749         -46.3089        -85.4349         -46.3083        -85.4407       -0.0462141         137.682
0.675                    -6.5603             135         -46.2151        -87.7044         -46.2143        -87.7119       -0.0468367         137.581
0.676                   -6.63288         133.201         -46.1195        -89.9809         -46.1185        -89.9901       -0.0474712         137.479
0.677                   -6.71684         131.353          -46.022        -92.2656          -46.021        -92.2766       -0.0481179         137.376
0.678                   -6.81274         129.455         -45.9229        -94.5598         -45.9218        -94.5724       -0.0487773         137.273
0.679                   -6.92118         127.509         -45.8223        -96.8645         -45.8212        -96.8787       -0.0494496          137.17
0.68                    -7.04284         125.514         -45.7204        -99.1809         -45.7193        -99.1965       -0.0501353         137.066
0.681                   -7.17843          123.47         -45.6173         -101.51         -45.6162        -101.527       -0.0508346         136.961
0.682                   -7.32876         121.378         -45.5132        -103.852         -45.5122         -103.87        -0.051548         136.856
0.683                    -7.4947         119.238         -45.4083        -106.209         -45.4074        -106.228       -0.0522759          136.75
0.684                   -7.67724         117.049         -45.3028        -108.581          -45.302        -108.601       -0.0530186         136.644
0.685                   -7.87745         114.811          -45.197        -110.968         -45.1963        -110.988       -0.0537766         136.537
0.686                   -8.09652         112.525         -45.0911        -113.371         -45.0906        -113.392       -0.0545502         136.429
0.687                   -8.33577         110.189         -44.9853         -115.79         -44.9849        -115.811       -0.0553399          136.32
0.688                   -8.59668         107.805         -44.8799        -118.226         -44.8796        -118.247       -0.0561461         136.211
0.689                    -8.8809         105.371         -44.7751        -120.678          -44.775        -120.698       -0.0569692         136.102
0.69                    -9.19027         102.888         -44.6712        -123.147         -44.6713        -123.166       -0.0578097         135.991
0.691                   -9.52691         100.354         -44.5685        -125.631         -44.5687         -125.65       -0.0586681          135.88
0.692                   -9.89318         97.7683         -44.4672        -128.131         -44.4675        -128.148       -0.0595448         135.769
0.693                   -10.2918         95.1309         -44.3675        -130.645         -44.3679        -130.661       -0.0604403         135.656
0.694                    -10.726         92.4396         -44.2698        -133.174         -44.2703        -133.188       -0.0613551         135.543
0.695                   -11.1993         89.6925         -44.1742        -135.715         -44.1748        -135.728       -0.0622897         135.429
0.696                   -11.7162         86.8864         -44.0811        -138.268         -44.0817        -138.279       -0.0632445         135.315