! TOUCHSTONE file generated by CST MICROWAVE STUDIO
! Date and time: Sat Nov 14 20:02:59 2020
! Project name: Scenario_1_Planar_Body_Tissue_Out_of_Line.cst
! Parameters = {dy1=-224.9; L_HA=400; Ltissue=700; MT=2.54; Rad_Dielectric=30; Rad_Lower=7.3; Rad_Upper=30; Wtissue=700; a_HA=580; a_WG=246; b_HA=500; b_WG=121; c_HA=0; c_WG=187; d_feed=85; dx1=693; h_feed=15; h_lower=18; h_upper=40; hfat=3; hgap=25; hmuscle=50; hskin=1.5}
! Header version: 2018
! Port assignment regex: !\s*Touchstone port\s*([0-9]+)\s*=\s*(CST MWS port|CST DS port)\s*([0-9]+|Zmin|Zmax)\s*\(\"(.*)\"\)(\s*mode\s*([0-9]+))?.*
! Touchstone port assignment:
! Touchstone port 1 = CST MWS port 1 ("")
! Touchstone port 2 = CST MWS port 2 ("")
# GHz S DB R 50
0.5                    -0.184088        -121.625         -62.4712        -179.225         -62.4713        -179.224      -0.00778476          151.15
0.501                  -0.186754        -122.041         -62.5877          179.33         -62.5916         179.301      -0.00784636         151.085
0.502                  -0.189479        -122.459         -62.7021         177.676         -62.7082          177.61      -0.00790859          151.02
0.503                  -0.192265         -122.88         -62.8072         175.797         -62.8137         175.691      -0.00797146         150.954
0.504                  -0.195115        -123.303         -62.8945         173.692         -62.8994         173.547      -0.00803499         150.889
0.505                  -0.198033        -123.729         -62.9548         171.379          -62.956         171.202      -0.00809916         150.824
0.506                  -0.201019        -124.158         -62.9798         168.898         -62.9758           168.7        -0.008164         150.758
0.507                  -0.204078        -124.589         -62.9631         166.308         -62.9532         166.106      -0.00822951         150.692
0.508                  -0.207213        -125.023         -62.9019         163.682         -62.8863          163.49      -0.00829571         150.627
0.509                  -0.210427        -125.461         -62.7974         161.094         -62.7774         160.926      -0.00836259         150.561
0.51                   -0.213723        -125.901         -62.6543         158.608         -62.6316         158.472      -0.00843016         150.495
0.511                  -0.217106        -126.344         -62.4801         156.271         -62.4565         156.171      -0.00849845         150.429
0.512                  -0.220579         -126.79          -62.283          154.11         -62.2604         154.043      -0.00856744         150.363
0.513                  -0.224147         -127.24         -62.0714          152.13          -62.051         152.092      -0.00863716         150.297
0.514                  -0.227814        -127.692         -61.8522         150.325         -61.8351         150.308      -0.00870761         150.231
0.515                  -0.231586        -128.148         -61.6312         148.675         -61.6177         148.673      -0.00877881         150.165
0.516                  -0.235467        -128.607         -61.4125         147.159         -61.4027         147.165      -0.00885075         150.098
0.517                  -0.239464        -129.069         -61.1986         145.753         -61.1924         145.761      -0.00892345         150.032
0.518                  -0.243582        -129.535         -60.9912         144.434         -60.9883          144.44      -0.00899692         149.965
0.519                  -0.247827        -130.005         -60.7911         143.181          -60.791         143.182      -0.00907116         149.899
0.52                   -0.252208        -130.478         -60.5982         141.977         -60.6006         141.971       -0.0091462         149.832
0.521                   -0.25673        -130.955         -60.4125         140.807         -60.4168         140.791      -0.00922203         149.765
0.522                  -0.261403        -131.436         -60.2334         139.658         -60.2393         139.633      -0.00929867         149.698
0.523                  -0.266235         -131.92         -60.0602          138.52         -60.0674         138.485      -0.00937613         149.631
0.524                  -0.271234        -132.409         -59.8923         137.386         -59.9004         137.342      -0.00945441         149.564
0.525                  -0.276411        -132.901         -59.7289         136.249         -59.7377         136.195      -0.00953353         149.497
0.526                  -0.281776        -133.398         -59.5695         135.103         -59.5786         135.041       -0.0096135          149.43
0.527                  -0.287342        -133.899         -59.4132         133.946         -59.4226         133.875      -0.00969433         149.363
0.528                  -0.293119        -134.404         -59.2595         132.773          -59.269         132.695      -0.00977602         149.295
0.529                  -0.299122        -134.914         -59.1079         131.582         -59.1173         131.498       -0.0098586         149.228
0.53                   -0.305365        -135.429         -58.9578         130.372         -58.9671         130.282      -0.00994207          149.16
0.531                  -0.311863        -135.948         -58.8087          129.14         -58.8177         129.046       -0.0100264         149.092
0.532                  -0.318634        -136.472         -58.6602         127.885          -58.669         127.787       -0.0101117         149.025
0.533                  -0.325695        -137.001          -58.512         126.607         -58.5204         126.506       -0.0101979         148.957
0.534                  -0.333066        -137.535         -58.3637         125.305         -58.3717         125.201       -0.0102851         148.889
0.535                  -0.340769        -138.074         -58.2149         123.977         -58.2226         123.871       -0.0103732          148.82
0.536                  -0.348826        -138.619         -58.0654         122.624         -58.0727         122.516       -0.0104622         148.752
0.537                  -0.357263        -139.169          -57.915         121.244         -57.9218         121.136       -0.0105523         148.684
0.538                  -0.366107        -139.724         -57.7634         119.838         -57.7698          119.73       -0.0106433         148.616
0.539                  -0.375387        -140.286         -57.6104         118.405         -57.6164         118.297       -0.0107353         148.547
0.54                   -0.385136        -140.853         -57.4558         116.945         -57.4614         116.837       -0.0108284         148.478
0.541                  -0.395389        -141.427         -57.2994         115.457         -57.3047          115.35       -0.0109225          148.41
0.542                  -0.406183        -142.006         -57.1412         113.942         -57.1461         113.836       -0.0110176         148.341
0.543                  -0.417562        -142.592          -56.981         112.397         -56.9855         112.293       -0.0111138         148.272
0.544                  -0.429569        -143.185         -56.8186         110.824         -56.8228         110.722       -0.0112111         148.203
0.545                  -0.442254        -143.784          -56.654         109.223         -56.6578         109.122       -0.0113095         148.134
0.546                  -0.455671         -144.39          -56.487         107.591         -56.4906         107.493        -0.011409         148.064
0.547                  -0.469879        -145.003         -56.3177          105.93          -56.321         105.834       -0.0115096         147.995
0.548                  -0.484943        -145.623          -56.146         104.238          -56.149         104.146       -0.0116114         147.925
0.549                  -0.500932        -146.251         -55.9717         102.516         -55.9745         102.426       -0.0117144         147.856
0.55                   -0.517922        -146.886         -55.7949         100.763         -55.7975         100.676       -0.0118186         147.786
0.551                  -0.535998        -147.528         -55.6156         98.9773          -55.618         98.8939        -0.011924         147.716
0.552                   -0.55525        -148.178         -55.4338         97.1598          -55.436         97.0798       -0.0120308         147.646
0.553                  -0.575778        -148.835         -55.2495         95.3096         -55.2514          95.233       -0.0121388         147.576
0.554                  -0.597689          -149.5         -55.0626         93.4259         -55.0644         93.3528       -0.0122482         147.506
0.555                  -0.621102        -150.173         -54.8734         91.5081          -54.875         91.4387        -0.012359         147.436
0.556                  -0.646144        -150.853         -54.6817         89.5558         -54.6832           89.49       -0.0124712         147.365
0.557                  -0.672953        -151.541         -54.4878         87.5681         -54.4892         87.5061        -0.012585         147.294
0.558                  -0.701679        -152.236         -54.2916         85.5445         -54.2929         85.4862       -0.0127003         147.224
0.559                  -0.732483        -152.938         -54.0933         83.4843         -54.0945         83.4297       -0.0128173         147.153
0.56                   -0.765538        -153.646         -53.8931         81.3867         -53.8943         81.3358       -0.0129361         147.082
0.561                  -0.801028        -154.361         -53.6911         79.2512         -53.6922          79.204       -0.0130567         147.011
0.562                  -0.839149        -155.081         -53.4875         77.0769         -53.4885         77.0335       -0.0131792          146.94
0.563                  -0.880106        -155.805         -53.2825         74.8633         -53.2834         74.8236       -0.0133039         146.868
0.564                  -0.924113        -156.532         -53.0762         72.6098         -53.0771         72.5737       -0.0134308         146.797
0.565                  -0.971391        -157.262          -52.869         70.3158         -52.8698         70.2833       -0.0135602         146.725
0.566                   -1.02216        -157.992         -52.6612         67.9807         -52.6619         67.9517       -0.0136921         146.653
0.567                   -1.07664        -158.721         -52.4529         65.6041         -52.4536         65.5786        -0.013827         146.581
0.568                   -1.13504        -159.446         -52.2446         63.1857         -52.2452         63.1636        -0.013965         146.509
0.569                   -1.19756        -160.165         -52.0366         60.7253         -52.0371         60.7063       -0.0141063         146.437
0.57                    -1.26434        -160.875         -51.8292         58.2226         -51.8297         58.2068       -0.0142513         146.365
0.571                   -1.33551        -161.571         -51.6229         55.6777         -51.6233          55.665       -0.0144002         146.292
0.572                   -1.41114        -162.251          -51.418          53.091         -51.4183         53.0811       -0.0145533         146.219
0.573                   -1.49118         -162.91          -51.215         50.4627         -51.2153         50.4556       -0.0147108         146.147
0.574                   -1.57554        -163.542         -51.0144         47.7936         -51.0146         47.7891        -0.014873         146.074
0.575                   -1.66395        -164.144         -50.8166         45.0845         -50.8166         45.0824       -0.0150398         146.001
0.576                   -1.75603        -164.708          -50.622         42.3366          -50.622         42.3368       -0.0152112         145.927
0.577                   -1.85121        -165.231         -50.4312         39.5512         -50.4311         39.5536       -0.0153872         145.854
0.578                   -1.94875        -165.708         -50.2446         36.7303         -50.2444         36.7345       -0.0155672         145.781
0.579                   -2.04771        -166.132         -50.0626         33.8757         -50.0623         33.8817       -0.0157509         145.707
0.58                    -2.14694        -166.501         -49.8859         30.9899         -49.8855         30.9974       -0.0159375         145.633
0.581                   -2.24512        -166.813         -49.7147         28.0756         -49.7142         28.0843       -0.0161263         145.559
0.582                    -2.3408        -167.065         -49.5494         25.1356         -49.5488         25.1454       -0.0163166         145.486
0.583                   -2.43242         -167.26         -49.3906         22.1732         -49.3899          22.184       -0.0165075         145.411
0.584                   -2.51841          -167.4         -49.2384         19.1921         -49.2376         19.2035       -0.0166984         145.337
0.585                   -2.59724        -167.491         -49.0931         16.1958         -49.0923         16.2077       -0.0168887         145.263
0.586                   -2.66757         -167.54         -48.9551         13.1884         -48.9542         13.2006       -0.0170781         145.188
0.587                   -2.72828        -167.556         -48.8244         10.1739         -48.8234         10.1862       -0.0172664         145.114
0.588                   -2.77854        -167.551         -48.7013         7.15645         -48.7002          7.1687       -0.0174535         145.039
0.589                    -2.8179        -167.536         -48.5856         4.14037         -48.5845         4.15241       -0.0176397         144.964
0.59                     -2.8463        -167.523         -48.4775         1.12982         -48.4764          1.1415       -0.0178252         144.889
0.591                     -2.864        -167.524         -48.3768        -1.87105         -48.3757        -1.85986       -0.0180101         144.813
0.592                   -2.87164        -167.549         -48.2834        -4.85823         -48.2823        -4.84763        -0.018195         144.738
0.593                   -2.87007        -167.607         -48.1971        -7.82787          -48.196        -7.81797       -0.0183801         144.662
0.594                   -2.86037        -167.707         -48.1177        -10.7763         -48.1166        -10.7672       -0.0185658         144.586
0.595                   -2.84372        -167.853         -48.0448        -13.7003         -48.0438         -13.692       -0.0187525          144.51
0.596                   -2.82135         -168.05         -47.9782        -16.5966         -47.9772        -16.5892       -0.0189404         144.434
0.597                   -2.79449          -168.3         -47.9173        -19.4625         -47.9165         -19.456       -0.0191299         144.357
0.598                   -2.76428        -168.604         -47.8619        -22.2956         -47.8612          -22.29       -0.0193211          144.28
0.599                   -2.73179        -168.962         -47.8115        -25.0937         -47.8108        -25.0891       -0.0195143         144.204
0.6                     -2.69798        -169.373         -47.7656        -27.8552         -47.7651        -27.8515       -0.0197097         144.127
0.601                   -2.66368        -169.834         -47.7238        -30.5786         -47.7234        -30.5758       -0.0199074         144.049
0.602                   -2.62961        -170.344         -47.6857        -33.2629         -47.6854        -33.2609       -0.0201076         143.972
0.603                   -2.59636          -170.9         -47.6507        -35.9072         -47.6506        -35.9061       -0.0203105         143.894
0.604                   -2.56442          -171.5         -47.6184        -38.5111         -47.6185        -38.5108       -0.0205161         143.816
0.605                    -2.5342         -172.14         -47.5885        -41.0745         -47.5886        -41.0749       -0.0207245         143.738
0.606                   -2.50602        -172.818         -47.5603        -43.5973         -47.5607        -43.5984       -0.0209359          143.66
0.607                   -2.48011        -173.532         -47.5336        -46.0799         -47.5342        -46.0816       -0.0211503         143.581
0.608                   -2.45668        -174.279          -47.508        -48.5229         -47.5087        -48.5251       -0.0213678         143.503
0.609                   -2.43587        -175.058         -47.4831        -50.9268         -47.4839        -50.9295       -0.0215884         143.424
0.61                    -2.41778        -175.865         -47.4585        -53.2925         -47.4595        -53.2957       -0.0218123         143.345
0.611                    -2.4025          -176.7         -47.4339        -55.6211          -47.435        -55.6246       -0.0220395         143.265
0.612                   -2.39008        -177.562         -47.4089        -57.9137         -47.4102        -57.9175         -0.02227         143.186
0.613                   -2.38057        -178.448         -47.3835        -60.1714         -47.3849        -60.1755        -0.022504         143.106
0.614                   -2.37399        -179.358         -47.3571        -62.3957         -47.3587        -62.3999       -0.0227414         143.026
0.615                   -2.37036          179.71         -47.3297        -64.5878         -47.3314        -64.5921       -0.0229824         142.945
0.616                   -2.36972         178.756          -47.301        -66.7492         -47.3028        -66.7537        -0.023227         142.865
0.617                   -2.37207          177.78         -47.2707        -68.8814         -47.2727        -68.8859       -0.0234753         142.784
0.618                   -2.37745         176.784         -47.2388         -70.986         -47.2409        -70.9905       -0.0237273         142.703
0.619                   -2.38587         175.768          -47.205        -73.0644         -47.2072        -73.0688        -0.023983         142.622
0.62                    -2.39737         174.732         -47.1692        -75.1183         -47.1715        -75.1226       -0.0242426         142.541
0.621                   -2.41198         173.677         -47.1313        -77.1492         -47.1337        -77.1533       -0.0245062         142.459
0.622                   -2.42976         172.602         -47.0912        -79.1587         -47.0936        -79.1627       -0.0247737         142.377
0.623                   -2.45075         171.508         -47.0487        -81.1484         -47.0512        -81.1521       -0.0250452         142.295
0.624                   -2.47503         170.395         -47.0038        -83.1198         -47.0063        -83.1234       -0.0253209         142.212
0.625                   -2.50266         169.263         -46.9564        -85.0747          -46.959         -85.078       -0.0256007          142.13
0.626                   -2.53374         168.111         -46.9064        -87.0146          -46.909        -87.0176       -0.0258848         142.047
0.627                   -2.56836          166.94         -46.8539        -88.9409         -46.8565        -88.9437       -0.0261732         141.963
0.628                   -2.60663          165.75         -46.7987        -90.8554         -46.8013        -90.8578        -0.026466          141.88
0.629                   -2.64869          164.54         -46.7408        -92.7596         -46.7435        -92.7616       -0.0267633         141.796
0.63                    -2.69467          163.31         -46.6803        -94.6549          -46.683        -94.6566       -0.0270651         141.712
0.631                   -2.74472         162.061         -46.6172        -96.5429         -46.6198        -96.5444       -0.0273716         141.628
0.632                   -2.79902         160.792         -46.5514        -98.4252          -46.554        -98.4263       -0.0276828         141.543
0.633                   -2.85776         159.502         -46.4829        -100.303         -46.4855        -100.304       -0.0279988         141.458
0.634                   -2.92114         158.192         -46.4119        -102.178         -46.4145        -102.179       -0.0283197         141.373
0.635                   -2.98937         156.862         -46.3383        -104.052         -46.3408        -104.052       -0.0286455         141.288
0.636                   -3.06271         155.511         -46.2622        -105.926         -46.2647        -105.926       -0.0289764         141.202
0.637                   -3.14142          154.14         -46.1837        -107.802         -46.1861        -107.801       -0.0293125         141.116
0.638                   -3.22578         152.748         -46.1028         -109.68         -46.1052        -109.679       -0.0296539         141.029
0.639                   -3.31609         151.336         -46.0197        -111.563          -46.022        -111.562       -0.0300005         140.943
0.64                    -3.41268         149.903         -45.9344        -113.451         -45.9366         -113.45       -0.0303527         140.856
0.641                   -3.51591         148.451          -45.847        -115.346         -45.8492        -115.345       -0.0307104         140.768
0.642                   -3.62616         146.978         -45.7578         -117.25         -45.7598        -117.248       -0.0310738         140.681
0.643                   -3.74383         145.486         -45.6667        -119.162         -45.6687         -119.16       -0.0314429         140.593
0.644                   -3.86935         143.976          -45.574        -121.085         -45.5759        -121.083       -0.0318179         140.505
0.645                   -4.00319         142.448         -45.4798         -123.02         -45.4817        -123.018       -0.0321989         140.416
0.646                   -4.14583         140.902         -45.3844        -124.967         -45.3861        -124.965       -0.0325861         140.327
0.647                   -4.29782         139.341         -45.2878        -126.928         -45.2894        -126.926       -0.0329795         140.238
0.648                    -4.4597         137.765         -45.1903        -128.904         -45.1918        -128.901       -0.0333792         140.148
0.649                   -4.63207         136.177         -45.0921        -130.895         -45.0935        -130.892       -0.0337854         140.058
0.65                    -4.81556         134.577         -44.9934        -132.901         -44.9948        -132.898       -0.0341983         139.968
0.651                   -5.01083         132.969         -44.8945        -134.924         -44.8957        -134.921       -0.0346179         139.877
0.652                    -5.2186         131.354         -44.7956        -136.964         -44.7967        -136.962       -0.0350444         139.786
0.653                   -5.43962         129.737         -44.6969        -139.022         -44.6979        -139.019       -0.0354779         139.695
0.654                   -5.67467          128.12         -44.5987        -141.097         -44.5996        -141.094       -0.0359186         139.603
0.655                    -5.9246         126.508         -44.5013        -143.189         -44.5021        -143.187       -0.0363666          139.51
0.656                   -6.19028         124.905         -44.4049        -145.299         -44.4057        -145.297       -0.0368221         139.418
0.657                   -6.47266         123.317         -44.3099        -147.426         -44.3105        -147.424       -0.0372852         139.325
0.658                   -6.77271          121.75         -44.2164         -149.57         -44.2169        -149.568       -0.0377561         139.231
0.659                   -7.09147         120.211         -44.1247         -151.73         -44.1252        -151.728        -0.038235         139.138
0.66                    -7.43005         118.709         -44.0352        -153.905         -44.0356        -153.903        -0.038722         139.043
0.661                   -7.78958         117.253          -43.948        -156.094         -43.9483        -156.093       -0.0392173         138.949
0.662                   -8.17127         115.854         -43.8634        -158.297         -43.8637        -158.296       -0.0397211         138.854
0.663                   -8.57638         114.525         -43.7816        -160.511         -43.7818        -160.511       -0.0402335         138.758
0.664                    -9.0062         113.282         -43.7028        -162.736          -43.703        -162.736       -0.0407548         138.662
0.665                   -9.46206         112.143         -43.6272        -164.969         -43.6274        -164.969       -0.0412851         138.566
0.666                   -9.94529         111.127          -43.555         -167.21         -43.5551         -167.21       -0.0418247         138.469
0.667                   -10.4572         110.261         -43.4863        -169.455         -43.4864        -169.455       -0.0423737         138.372
0.668                   -10.9989         109.573         -43.4212        -171.703         -43.4213        -171.704       -0.0429324         138.274
0.669                   -11.5713           109.1         -43.3598        -173.953         -43.3598        -173.954        -0.043501         138.176
0.67                     -12.175         108.885         -43.3021        -176.201         -43.3021        -176.202       -0.0440797         138.077
0.671                   -12.8097         108.978         -43.2481        -178.446         -43.2481        -178.448       -0.0446687         137.978
0.672                   -13.4739         109.443         -43.1979         179.314         -43.1979         179.313       -0.0452682         137.878
0.673                   -14.1643          110.35         -43.1513         177.082         -43.1512         177.081       -0.0458786         137.778
0.674                   -14.8746         111.786         -43.1082          174.86         -43.1082         174.858          -0.0465         137.677
0.675                   -15.5944         113.843         -43.0687         172.649         -43.0686         172.647       -0.0471328         137.576
0.676                    -16.307         116.615         -43.0324         170.452         -43.0323          170.45       -0.0477771         137.474
0.677                   -16.9881         120.182         -42.9992          168.27         -42.9992         168.268       -0.0484332         137.372
0.678                   -17.6048         124.581          -42.969         166.106          -42.969         166.104       -0.0491015         137.269
0.679                   -18.1176         129.768         -42.9415          163.96         -42.9415         163.958       -0.0497822         137.166
0.68                    -18.4863         135.584         -42.9165         161.834         -42.9164         161.832       -0.0504757         137.062
0.681                   -18.6801         141.751         -42.8936          159.73         -42.8936         159.728       -0.0511821         136.957
0.682                   -18.6884         147.911         -42.8728         157.648         -42.8728         157.646       -0.0519019         136.852
0.683                   -18.5243         153.711         -42.8536         155.589         -42.8536         155.587       -0.0526353         136.746
0.684                   -18.2197         158.885         -42.8358         153.554         -42.8358         153.552       -0.0533827          136.64
0.685                    -17.815          163.29         -42.8191         151.543         -42.8191         151.542       -0.0541445         136.533
0.686                   -17.3486         166.893         -42.8033         149.558         -42.8033         149.556       -0.0549209         136.425
0.687                   -16.8519         169.737          -42.788         147.598          -42.788         147.596       -0.0557124         136.317
0.688                   -16.3479         171.903          -42.773         145.662          -42.773         145.661       -0.0565194         136.208
0.689                    -15.852         173.483          -42.758         143.752          -42.758         143.751       -0.0573422         136.099
0.69                    -15.3736         174.567         -42.7427         141.867         -42.7427         141.866       -0.0581812         135.989
0.691                   -14.9185         175.238         -42.7269         140.006         -42.7269         140.005       -0.0590369         135.878
0.692                   -14.4894         175.563         -42.7103          138.17         -42.7103         138.169       -0.0599097         135.766
0.693                   -14.0872         175.601         -42.6927         136.357         -42.6927         136.356          -0.0608         135.654
0.694                    -13.712           175.4         -42.6739         134.568         -42.6739         134.567       -0.0617083         135.541
0.695                   -13.3631         174.998         -42.6537           132.8         -42.6537         132.799       -0.0626352         135.427
0.696                   -13.0394         174.427         -42.6318         131.054         -42.6318         131.054        -0.063581         135.313