! TOUCHSTONE file generated by CST MICROWAVE STUDIO
! Date and time: Sat Nov 14 20:43:14 2020
! Project name: Scenario_1_Planar_Body_Tissue_Out_of_Line_v2.cst
! Parameters = {dy1=-259.5; L_HA=400; Ltissue=700; MT=2.54; Rad_Dielectric=30; Rad_Lower=7.3; Rad_Upper=30; Wtissue=700; a_HA=580; a_WG=246; b_HA=500; b_WG=121; c_HA=0; c_WG=187; d_feed=85; dx1=173; h_feed=15; h_lower=18; h_upper=40; hfat=3; hgap=25; hmuscle=50; hskin=1.5}
! Header version: 2018
! Port assignment regex: !\s*Touchstone port\s*([0-9]+)\s*=\s*(CST MWS port|CST DS port)\s*([0-9]+|Zmin|Zmax)\s*\(\"(.*)\"\)(\s*mode\s*([0-9]+))?.*
! Touchstone port assignment:
! Touchstone port 1 = CST MWS port 1 ("")
! Touchstone port 2 = CST MWS port 2 ("")
# GHz S DB R 50
0.5                   -0.0590618        -121.781         -63.8242         123.998         -63.8245         124.003      -0.00692976         151.146
0.501                 -0.0606948         -122.23         -63.6503         123.448         -63.6505         123.453      -0.00698959         151.081
0.502                 -0.0624446        -122.682         -63.4724         122.893         -63.4726         122.897       -0.0070501         151.015
0.503                 -0.0643169        -123.137         -63.2905          122.33         -63.2906         122.334       -0.0071113          150.95
0.504                 -0.0663181        -123.596         -63.1045         121.761         -63.1047         121.765      -0.00717317         150.884
0.505                 -0.0684548        -124.058         -62.9146         121.185         -62.9147         121.188      -0.00723571         150.819
0.506                  -0.070734        -124.524         -62.7207         120.602         -62.7208         120.605       -0.0072989         150.753
0.507                 -0.0731634        -124.994         -62.5228         120.011         -62.5229         120.013      -0.00736275         150.687
0.508                 -0.0757511        -125.468          -62.321         119.411          -62.321         119.414      -0.00742723         150.622
0.509                 -0.0785058        -125.945         -62.1152         118.804         -62.1152         118.806      -0.00749233         150.556
0.51                  -0.0814368        -126.427         -61.9055         118.188         -61.9054          118.19      -0.00755804          150.49
0.511                  -0.084554        -126.913         -61.6918         117.563         -61.6917         117.565      -0.00762435         150.424
0.512                 -0.0878683        -127.404         -61.4742         116.928         -61.4741          116.93      -0.00769124         150.357
0.513                 -0.0913911        -127.898         -61.2527         116.284         -61.2525         116.285      -0.00775869         150.291
0.514                 -0.0951349        -128.397         -61.0272         115.629         -61.0271         115.631      -0.00782668         150.225
0.515                 -0.0991129        -128.901         -60.7979         114.964         -60.7977         114.965       -0.0078952         150.159
0.516                   -0.10334         -129.41         -60.5647         114.288         -60.5645         114.289      -0.00796421         150.092
0.517                   -0.10783        -129.923         -60.3276           113.6         -60.3274           113.6      -0.00803369         150.026
0.518                  -0.112602        -130.442         -60.0866           112.9         -60.0864           112.9      -0.00810362         149.959
0.519                  -0.117672        -130.965         -59.8418         112.187         -59.8416         112.188      -0.00817396         149.892
0.52                   -0.123061        -131.494         -59.5931         111.462         -59.5929         111.462      -0.00824467         149.825
0.521                   -0.12879        -132.028         -59.3406         110.722         -59.3403         110.722      -0.00831573         149.758
0.522                  -0.134881        -132.568         -59.0842         109.969         -59.0839         109.969      -0.00838708         149.691
0.523                  -0.141359        -133.114          -58.824           109.2         -58.8237           109.2      -0.00845869         149.624
0.524                  -0.148251        -133.666           -58.56         108.417         -58.5597         108.416       -0.0085305         149.557
0.525                  -0.155587        -134.224         -58.2921         107.617         -58.2918         107.616      -0.00860246          149.49
0.526                  -0.163398        -134.788         -58.0204           106.8         -58.0201         106.799      -0.00867451         149.423
0.527                  -0.171719        -135.358         -57.7449         105.965         -57.7445         105.965      -0.00874658         149.355
0.528                  -0.180588        -135.936         -57.4655         105.113         -57.4652         105.112      -0.00881862         149.288
0.529                  -0.190046         -136.52         -57.1824         104.241          -57.182          104.24      -0.00889053          149.22
0.53                   -0.200138        -137.111         -56.8954         103.348          -56.895         103.347      -0.00896225         149.152
0.531                  -0.210914         -137.71         -56.6046         102.435         -56.6042         102.434      -0.00903367         149.085
0.532                  -0.222427        -138.316           -56.31           101.5         -56.3096         101.499      -0.00910471         149.017
0.533                  -0.234736        -138.931         -56.0115         100.542         -56.0112         100.541      -0.00917528         148.949
0.534                  -0.247907        -139.553         -55.7093         99.5599          -55.709         99.5585      -0.00924525          148.88
0.535                   -0.26201        -140.183         -55.4033         98.5524         -55.4029         98.5509      -0.00931453         148.812
0.536                  -0.277123        -140.822         -55.0934         97.5184         -55.0931         97.5168        -0.009383         148.744
0.537                  -0.293333         -141.47         -54.7798         96.4565         -54.7795         96.4549      -0.00945055         148.675
0.538                  -0.310735        -142.127         -54.4624         95.3655         -54.4621         95.3638      -0.00951709         148.607
0.539                  -0.329432        -142.794         -54.1413         94.2437          -54.141          94.242      -0.00958252         148.538
0.54                    -0.34954         -143.47         -53.8164         93.0897         -53.8161         93.0879      -0.00964676         148.469
0.541                  -0.371185        -144.155         -53.4878         91.9018         -53.4875            91.9      -0.00970978         148.401
0.542                  -0.394509        -144.851         -53.1556         90.6782         -53.1553         90.6764      -0.00977158         148.331
0.543                  -0.419665        -145.557         -52.8198         89.4171         -52.8195         89.4152      -0.00983224         148.262
0.544                  -0.446825        -146.273         -52.4804         88.1163         -52.4801         88.1144      -0.00989194         148.193
0.545                  -0.476178            -147         -52.1375         86.7739         -52.1372          86.772      -0.00995097         148.123
0.546                  -0.507934        -147.738         -51.7912         85.3876          -51.791         85.3857       -0.0100098         148.054
0.547                  -0.542323        -148.486         -51.4417          83.955         -51.4414         83.9531       -0.0100692         147.984
0.548                  -0.579601        -149.245          -51.089         82.4736         -51.0888         82.4717         -0.01013         147.914
0.549                  -0.620048        -150.014         -50.7334         80.9408         -50.7331         80.9389       -0.0101937         147.844
0.55                   -0.663974        -150.792         -50.3749         79.3537         -50.3747         79.3518       -0.0102619         147.774
0.551                  -0.711721        -151.581         -50.0139         77.7096         -50.0136         77.7077       -0.0103369         147.703
0.552                   -0.76366        -152.378         -49.6505         76.0053         -49.6503         76.0034       -0.0104211         147.632
0.553                  -0.820199        -153.182         -49.2852         74.2377          -49.285         74.2358       -0.0105175         147.562
0.554                   -0.88178        -153.993         -48.9182         72.4035          -48.918         72.4017       -0.0106292         147.491
0.555                   -0.94888        -154.809           -48.55         70.4995         -48.5498         70.4978       -0.0107592         147.419
0.556                   -1.02201        -155.626         -48.1811         68.5223         -48.1809         68.5206         -0.01091         147.348
0.557                   -1.10171        -156.443          -47.812         66.4686         -47.8118         66.4669       -0.0110832         147.276
0.558                   -1.18854        -157.256         -47.4433          64.335         -47.4432         64.3334       -0.0112792         147.205
0.559                   -1.28307         -158.06         -47.0759         62.1183         -47.0758         62.1168       -0.0114968         147.133
0.56                    -1.38588         -158.85         -46.7104         59.8156         -46.7103         59.8141       -0.0117335         147.062
0.561                   -1.49749        -159.619         -46.3479         57.4242         -46.3478         57.4228       -0.0119852          146.99
0.562                    -1.6184        -160.359         -45.9893         54.9418         -45.9892         54.9404       -0.0122474         146.918
0.563                   -1.74897        -161.061         -45.6357         52.3666         -45.6356         52.3654       -0.0125152         146.847
0.564                   -1.88941        -161.714         -45.2883         49.6976         -45.2883         49.6965       -0.0127842         146.775
0.565                   -2.03969        -162.305         -44.9485         46.9346         -44.9485         46.9335       -0.0130507         146.703
0.566                   -2.19946         -162.82         -44.6177         44.0783         -44.6176         44.0773       -0.0133117         146.632
0.567                   -2.36794        -163.244         -44.2971         41.1306         -44.2971         41.1297       -0.0135656          146.56
0.568                   -2.54381         -163.56         -43.9884         38.0946         -43.9883         38.0939       -0.0138111         146.488
0.569                   -2.72513        -163.752         -43.6929          34.975         -43.6929         34.9744       -0.0140482         146.416
0.57                    -2.90918        -163.804         -43.4122         31.7779         -43.4122         31.7773       -0.0142769         146.344
0.571                    -3.0925        -163.704         -43.1475         28.5106         -43.1475         28.5102       -0.0144978         146.272
0.572                   -3.27083        -163.442         -42.9001         25.1823            -42.9          25.182       -0.0147117           146.2
0.573                    -3.4393        -163.017          -42.671         21.8033         -42.6709          21.803       -0.0149193         146.127
0.574                   -3.59265        -162.434          -42.461          18.385          -42.461         18.3848       -0.0151216         146.055
0.575                    -3.7256        -161.708         -42.2708         14.9398         -42.2708         14.9397       -0.0153195         145.982
0.576                   -3.83338        -160.863         -42.1007         11.4807         -42.1007         11.4806       -0.0155137         145.909
0.577                   -3.91217        -159.934         -41.9507         8.02061         -41.9506         8.02066        -0.015705         145.836
0.578                    -3.9596        -158.959         -41.8205         4.57268         -41.8204         4.57278        -0.015894         145.763
0.579                   -3.97496        -157.982         -41.7095         1.14929         -41.7095         1.14944       -0.0160813          145.69
0.58                    -3.95929        -157.044         -41.6171        -2.23796          -41.617        -2.23777       -0.0162674         145.616
0.581                   -3.91515        -156.181         -41.5421         -5.5786          -41.542        -5.57838       -0.0164528         145.543
0.582                   -3.84627        -155.425         -41.4833        -8.86347         -41.4833        -8.86323        -0.016638         145.469
0.583                   -3.75708        -154.796         -41.4396        -12.0849         -41.4395        -12.0846       -0.0168232         145.395
0.584                   -3.65221        -154.307         -41.4093        -15.2365         -41.4093        -15.2363       -0.0170087         145.321
0.585                   -3.53618        -153.963         -41.3912        -18.3138         -41.3911        -18.3135       -0.0171948         145.246
0.586                   -3.41309        -153.761         -41.3837        -21.3132         -41.3836         -21.313       -0.0173818         145.172
0.587                   -3.28645        -153.696         -41.3855        -24.2329         -41.3854        -24.2326       -0.0175698         145.097
0.588                   -3.15915        -153.759          -41.395        -27.0719          -41.395        -27.0716       -0.0177591         145.022
0.589                   -3.03348        -153.937         -41.4112        -29.8304         -41.4111        -29.8301       -0.0179498         144.947
0.59                    -2.91115         -154.22         -41.4326        -32.5093         -41.4326        -32.5091        -0.018142         144.872
0.591                   -2.79341        -154.595         -41.4584        -35.1104         -41.4583        -35.1102       -0.0183358         144.797
0.592                   -2.68108        -155.051         -41.4873         -37.636         -41.4872        -37.6358       -0.0185314         144.721
0.593                   -2.57469        -155.578         -41.5186        -40.0886         -41.5185        -40.0884       -0.0187289         144.645
0.594                   -2.47451        -156.166         -41.5513        -42.4713         -41.5513        -42.4712       -0.0189284         144.569
0.595                   -2.38063        -156.808         -41.5849        -44.7874         -41.5848        -44.7872         -0.01913         144.493
0.596                     -2.293        -157.495         -41.6186        -47.0401         -41.6186        -47.0399       -0.0193337         144.417
0.597                   -2.21149        -158.222          -41.652        -49.2328         -41.6519        -49.2327       -0.0195396          144.34
0.598                   -2.13587        -158.984         -41.6845         -51.369         -41.6844        -51.3688       -0.0197478         144.264
0.599                    -2.0659        -159.774         -41.7157         -53.452         -41.7157        -53.4518       -0.0199584         144.187
0.6                      -2.0013        -160.591         -41.7454        -55.4851         -41.7453         -55.485       -0.0201714          144.11
0.601                    -1.9418         -161.43         -41.7731        -57.4716         -41.7731        -57.4714       -0.0203869         144.033
0.602                   -1.88711        -162.289         -41.7987        -59.4145         -41.7987        -59.4144        -0.020605         143.955
0.603                   -1.83696        -163.165         -41.8219        -61.3169         -41.8219        -61.3168       -0.0208257         143.877
0.604                   -1.79107        -164.057         -41.8427        -63.1815         -41.8426        -63.1814        -0.021049           143.8
0.605                   -1.74919        -164.962         -41.8607        -65.0112         -41.8607        -65.0111       -0.0212751         143.722
0.606                   -1.71108        -165.881         -41.8761        -66.8085         -41.8761        -66.8084        -0.021504         143.643
0.607                   -1.67652        -166.812         -41.8886        -68.5759         -41.8885        -68.5758       -0.0217357         143.565
0.608                    -1.6453        -167.753         -41.8981        -70.3157         -41.8981        -70.3156       -0.0219703         143.486
0.609                   -1.61724        -168.705         -41.9048        -72.0301         -41.9048          -72.03       -0.0222079         143.407
0.61                    -1.59215        -169.666         -41.9085        -73.7212         -41.9085        -73.7211       -0.0224484         143.328
0.611                   -1.56988        -170.638         -41.9092         -75.391         -41.9092        -75.3909       -0.0226921         143.249
0.612                   -1.55028        -171.618         -41.9069        -77.0414         -41.9069        -77.0413       -0.0229388         143.169
0.613                   -1.53322        -172.607         -41.9016         -78.674         -41.9016        -78.6739       -0.0231888         143.089
0.614                   -1.51858        -173.606         -41.8934        -80.2906         -41.8934        -80.2905       -0.0234419         143.009
0.615                   -1.50626        -174.614         -41.8823        -81.8928         -41.8823        -81.8926       -0.0236984         142.929
0.616                   -1.49616         -175.63         -41.8682        -83.4819         -41.8682        -83.4818       -0.0239582         142.849
0.617                   -1.48818        -176.656         -41.8513        -85.0596         -41.8513        -85.0594       -0.0242215         142.768
0.618                   -1.48227        -177.691         -41.8316        -86.6269         -41.8316        -86.6268       -0.0244882         142.687
0.619                   -1.47835        -178.736         -41.8091        -88.1853         -41.8091        -88.1852       -0.0247585         142.606
0.62                    -1.47636         -179.79         -41.7838         -89.736         -41.7839        -89.7358       -0.0250323         142.524
0.621                   -1.47625         179.145         -41.7559        -91.2799         -41.7559        -91.2798       -0.0253098         142.443
0.622                   -1.47799         178.071         -41.7253        -92.8183         -41.7254        -92.8182       -0.0255911         142.361
0.623                   -1.48154         176.986         -41.6922        -94.3522         -41.6923         -94.352       -0.0258761         142.278
0.624                   -1.48686          175.89         -41.6566        -95.8825         -41.6566        -95.8823        -0.026165         142.196
0.625                   -1.49395         174.783         -41.6185        -97.4101         -41.6186        -97.4099       -0.0264578         142.113
0.626                   -1.50277         173.664          -41.578         -98.936         -41.5781        -98.9358       -0.0267547          142.03
0.627                   -1.51334         172.534         -41.5352        -100.461         -41.5353        -100.461       -0.0270556         141.947
0.628                   -1.52563         171.391         -41.4902        -101.986         -41.4902        -101.985       -0.0273607         141.864
0.629                   -1.53966         170.236         -41.4429        -103.511          -41.443        -103.511         -0.02767          141.78
0.63                    -1.55542         169.068         -41.3935        -105.038         -41.3936        -105.038       -0.0279836         141.696
0.631                   -1.57294         167.886         -41.3421        -106.567         -41.3422        -106.566       -0.0283016         141.612
0.632                   -1.59223          166.69         -41.2886        -108.098         -41.2887        -108.098        -0.028624         141.527
0.633                   -1.61332          165.48         -41.2333        -109.633         -41.2334        -109.633        -0.028951         141.442
0.634                   -1.63622         164.255         -41.1761        -111.172         -41.1762        -111.172       -0.0292826         141.357
0.635                   -1.66098         163.015         -41.1171        -112.715         -41.1172        -112.715        -0.029619         141.272
0.636                   -1.68763         161.759         -41.0564        -114.264         -41.0565        -114.263       -0.0299602         141.186
0.637                   -1.71622         160.486         -40.9941        -115.818         -40.9942        -115.817       -0.0303062           141.1
0.638                   -1.74679         159.197         -40.9303        -117.378         -40.9304        -117.378       -0.0306573         141.013
0.639                   -1.77939          157.89          -40.865        -118.944         -40.8651        -118.944       -0.0310134         140.927
0.64                    -1.81408         156.566         -40.7983        -120.518         -40.7984        -120.518       -0.0313747          140.84
0.641                   -1.85093         155.223         -40.7303        -122.099         -40.7304        -122.099       -0.0317414         140.752
0.642                      -1.89         153.861         -40.6611        -123.688         -40.6611        -123.688       -0.0321134         140.665
0.643                   -1.93136          152.48         -40.5907        -125.286         -40.5908        -125.285       -0.0324909         140.577
0.644                    -1.9751         151.078         -40.5193        -126.891         -40.5194        -126.891        -0.032874         140.489
0.645                   -2.02131         149.655         -40.4469        -128.506          -40.447        -128.506       -0.0332628           140.4
0.646                   -2.07006         148.211         -40.3737         -130.13         -40.3737         -130.13       -0.0336575         140.311
0.647                   -2.12145         146.745         -40.2997        -131.763         -40.2997        -131.763       -0.0340581         140.222
0.648                    -2.1756         145.256          -40.225        -133.406          -40.225        -133.406       -0.0344647         140.132
0.649                   -2.23259         143.744         -40.1496        -135.059         -40.1497        -135.059       -0.0348776         140.042
0.65                    -2.29256         142.207         -40.0738        -136.722         -40.0739        -136.722       -0.0352968         139.952
0.651                   -2.35562         140.646         -39.9976        -138.395         -39.9977        -138.395       -0.0357224         139.861
0.652                    -2.4219         139.059         -39.9211        -140.079         -39.9212        -140.079       -0.0361546          139.77
0.653                   -2.49153         137.445         -39.8444        -141.773         -39.8445        -141.773       -0.0365935         139.678
0.654                   -2.56466         135.805         -39.7676        -143.478         -39.7676        -143.477       -0.0370392         139.587
0.655                   -2.64143         134.136         -39.6908        -145.193         -39.6908        -145.193        -0.037492         139.494
0.656                   -2.72199         132.439          -39.614        -146.919         -39.6141        -146.918       -0.0379519         139.402
0.657                   -2.80652         130.712         -39.5375        -148.655         -39.5376        -148.655       -0.0384191         139.309
0.658                   -2.89517         128.954         -39.4613        -150.402         -39.4613        -150.401       -0.0388937         139.215
0.659                   -2.98813         127.165         -39.3855        -152.159         -39.3855        -152.159        -0.039376         139.121
0.66                    -3.08559         125.343         -39.3102        -153.926         -39.3102        -153.926        -0.039866         139.027
0.661                   -3.18772         123.489         -39.2355        -155.703         -39.2355        -155.703        -0.040364         138.932
0.662                   -3.29474         121.599         -39.1615         -157.49         -39.1615         -157.49       -0.0408701         138.837
0.663                   -3.40685         119.674         -39.0883        -159.287         -39.0883        -159.287       -0.0413844         138.742
0.664                   -3.52426         117.713          -39.016        -161.093         -39.0161        -161.093       -0.0419073         138.646
0.665                   -3.64719         115.714         -38.9448        -162.907         -38.9448        -162.907       -0.0424388         138.549
0.666                   -3.77588         113.675         -38.8746        -164.731         -38.8746        -164.731       -0.0429792         138.452
0.667                   -3.91054         111.597         -38.8056        -166.562         -38.8056        -166.562       -0.0435286         138.355
0.668                   -4.05142         109.477         -38.7378        -168.401         -38.7379        -168.401       -0.0440873         138.257
0.669                   -4.19877         107.313         -38.6715        -170.247         -38.6715        -170.247       -0.0446554         138.159
0.67                    -4.35282         105.105         -38.6065          -172.1         -38.6065          -172.1       -0.0452332          138.06
0.671                   -4.51383         102.851         -38.5431        -173.958         -38.5431        -173.958       -0.0458209         137.961
0.672                   -4.68205         100.549         -38.4812        -175.823         -38.4812        -175.823       -0.0464188         137.861
0.673                   -4.85771         98.1961          -38.421        -177.692          -38.421        -177.692        -0.047027         137.761
0.674                   -5.04109         95.7914         -38.3625        -179.565         -38.3625        -179.565       -0.0476459          137.66
0.675                    -5.2324         93.3323         -38.3057         178.558         -38.3057         178.558       -0.0482756         137.559
0.676                   -5.43189         90.8162         -38.2507         176.678         -38.2507         176.678       -0.0489164         137.457
0.677                   -5.63979         88.2405         -38.1976         174.796         -38.1976         174.796       -0.0495686         137.354
0.678                   -5.85629         85.6022         -38.1464         172.912         -38.1464         172.912       -0.0502324         137.251
0.679                   -6.08158         82.8979          -38.097         171.028          -38.097         171.028       -0.0509081         137.148
0.68                    -6.31583         80.1242         -38.0496         169.144         -38.0496         169.144       -0.0515961         137.044
0.681                   -6.55915         77.2768         -38.0042         167.261         -38.0042          167.26       -0.0522965         136.939
0.682                   -6.81164         74.3516         -37.9606         165.379         -37.9606         165.378       -0.0530098         136.834
0.683                    -7.0733         71.3435         -37.9191         163.499         -37.9191         163.499       -0.0537362         136.728
0.684                   -7.34411         68.2473         -37.8794         161.622         -37.8794         161.622        -0.054476         136.622
0.685                   -7.62393         65.0569         -37.8417         159.749         -37.8417         159.749       -0.0552296         136.514
0.686                   -7.91254         61.7661         -37.8059         157.881         -37.8059          157.88       -0.0559974         136.407
0.687                   -8.20956         58.3676          -37.772         156.017          -37.772         156.017       -0.0567796         136.298
0.688                    -8.5145         54.8538           -37.74          154.16           -37.74         154.159       -0.0575766         136.189
0.689                   -8.82664         51.2165         -37.7097         152.309         -37.7097         152.308       -0.0583888          136.08
0.69                    -9.14507         47.4471         -37.6812         150.465         -37.6812         150.465       -0.0592166         135.969
0.691                   -9.46858         43.5363         -37.6545         148.629         -37.6545         148.629       -0.0600605         135.858
0.692                   -9.79569          39.475         -37.6294         146.801         -37.6294         146.801       -0.0609207         135.747
0.693                   -10.1245         35.2539         -37.6059         144.982         -37.6059         144.982       -0.0617977         135.634
0.694                   -10.4529         30.8643         -37.5839         143.173         -37.5839         143.173        -0.062692         135.521
0.695                    -10.778         26.2986         -37.5634         141.374         -37.5634         141.374        -0.063604         135.407
0.696                   -11.0967          21.551         -37.5444         139.585         -37.5444         139.585       -0.0645342         135.292