! TOUCHSTONE file generated by CST MICROWAVE STUDIO
! Date and time: Sat Nov 14 20:43:35 2020
! Project name: Scenario_1_Planar_Body_Tissue_Out_of_Line_v2.cst
! Parameters = {dy1=-294.1; L_HA=400; Ltissue=700; MT=2.54; Rad_Dielectric=30; Rad_Lower=7.3; Rad_Upper=30; Wtissue=700; a_HA=580; a_WG=246; b_HA=500; b_WG=121; c_HA=0; c_WG=187; d_feed=85; dx1=173; h_feed=15; h_lower=18; h_upper=40; hfat=3; hgap=25; hmuscle=50; hskin=1.5}
! Header version: 2018
! Port assignment regex: !\s*Touchstone port\s*([0-9]+)\s*=\s*(CST MWS port|CST DS port)\s*([0-9]+|Zmin|Zmax)\s*\(\"(.*)\"\)(\s*mode\s*([0-9]+))?.*
! Touchstone port assignment:
! Touchstone port 1 = CST MWS port 1 ("")
! Touchstone port 2 = CST MWS port 2 ("")
# GHz S DB R 50
0.5                   -0.0659276        -121.807         -65.8081         119.957         -65.8076         119.958      -0.00702456          151.14
0.501                 -0.0681016        -122.254         -65.6236         119.377         -65.6231         119.378      -0.00708229         151.074
0.502                 -0.0703674        -122.705         -65.4363         118.795         -65.4359         118.795      -0.00714131         151.009
0.503                 -0.0727318         -123.16         -65.2462          118.21         -65.2459          118.21      -0.00720163         150.943
0.504                 -0.0752024        -123.618         -65.0533         117.622          -65.053         117.622      -0.00726323         150.878
0.505                  -0.077787         -124.08         -64.8575          117.03         -64.8573         117.031      -0.00732612         150.812
0.506                  -0.080494        -124.545         -64.6588         116.435         -64.6586         116.436      -0.00739029         150.747
0.507                 -0.0833325        -125.015          -64.457         115.835         -64.4569         115.836      -0.00745575         150.681
0.508                  -0.086312        -125.488         -64.2523         115.231         -64.2522         115.232       -0.0075225         150.615
0.509                 -0.0894428        -125.965         -64.0445         114.622         -64.0444         114.623      -0.00759053         150.549
0.51                  -0.0927359        -126.447         -63.8335         114.008         -63.8335         114.009      -0.00765983         150.483
0.511                 -0.0962028        -126.932         -63.6194         113.387         -63.6195         113.388      -0.00773042         150.417
0.512                 -0.0998561        -127.422         -63.4021          112.76         -63.4022         112.761      -0.00780227         150.351
0.513                  -0.103709        -127.916         -63.1816         112.126         -63.1817         112.128       -0.0078754         150.285
0.514                  -0.107776        -128.415         -62.9578         111.485         -62.9579         111.486      -0.00794979         150.218
0.515                  -0.112073        -128.919         -62.7306         110.835         -62.7307         110.837      -0.00802543         150.152
0.516                  -0.116616        -129.427            -62.5         110.177         -62.5002         110.179      -0.00810233         150.086
0.517                  -0.121423         -129.94         -62.2661          109.51         -62.2662         109.512      -0.00818046         150.019
0.518                  -0.126513        -130.458         -62.0286         108.833         -62.0288         108.834      -0.00825982         149.952
0.519                  -0.131906        -130.981         -61.7877         108.145         -61.7879         108.146      -0.00834039         149.886
0.52                   -0.137624         -131.51         -61.5432         107.446         -61.5434         107.447      -0.00842216         149.819
0.521                  -0.143692        -132.043         -61.2951         106.735         -61.2953         106.736      -0.00850511         149.752
0.522                  -0.150135        -132.583         -61.0434         106.011         -61.0436         106.012      -0.00858921         149.685
0.523                  -0.156981        -133.128          -60.788         105.273         -60.7882         105.275      -0.00867442         149.618
0.524                   -0.16426        -133.679         -60.5289         104.521         -60.5292         104.523      -0.00876073         149.551
0.525                  -0.172003        -134.236         -60.2661         103.754         -60.2663         103.755      -0.00884807         149.484
0.526                  -0.180247        -134.799         -59.9995          102.97         -59.9997         102.972      -0.00893641         149.416
0.527                  -0.189029        -135.369         -59.7291          102.17         -59.7293         102.171      -0.00902566         149.349
0.528                   -0.19839        -135.945         -59.4548         101.351         -59.4551         101.352      -0.00911576         149.281
0.529                  -0.208375        -136.528         -59.1767         100.513          -59.177         100.514      -0.00920659         149.214
0.53                   -0.219031        -137.117         -58.8947         99.6544          -58.895         99.6559      -0.00929805         149.146
0.531                  -0.230413        -137.714         -58.6088         98.7746         -58.6091          98.776      -0.00938996         149.079
0.532                  -0.242576        -138.317          -58.319         97.8722         -58.3192         97.8736      -0.00948214         149.011
0.533                  -0.255583        -138.929         -58.0252         96.9459         -58.0255         96.9473      -0.00957434         148.943
0.534                  -0.269501        -139.547         -57.7275         95.9944         -57.7277         95.9957      -0.00966624         148.875
0.535                  -0.284404        -140.174         -57.4258         95.0163         -57.4261         95.0177      -0.00975745         148.807
0.536                  -0.300372        -140.808         -57.1202         94.0103         -57.1204         94.0116      -0.00984743         148.739
0.537                  -0.317492         -141.45         -56.8106         92.9748         -56.8109          92.976       -0.0099355          148.67
0.538                   -0.33586        -142.101         -56.4971         91.9082         -56.4974         91.9094       -0.0100208         148.602
0.539                  -0.355579         -142.76         -56.1797         90.8089           -56.18           90.81       -0.0101021         148.534
0.54                   -0.376762        -143.427         -55.8585         89.6752         -55.8587         89.6763       -0.0101778         148.465
0.541                  -0.399532        -144.103         -55.5334         88.5052         -55.5337         88.5062       -0.0102459         148.397
0.542                  -0.424025        -144.787         -55.2046         87.2971         -55.2048         87.2981       -0.0103035         148.328
0.543                  -0.450386         -145.48         -54.8721         86.0488         -54.8723         86.0498       -0.0103469          148.26
0.544                  -0.478775        -146.182          -54.536         84.7584         -54.5363         84.7593       -0.0103712         148.191
0.545                  -0.509366        -146.892         -54.1965         83.4237         -54.1967         83.4246       -0.0103702         148.122
0.546                  -0.542347         -147.61         -53.8536         82.0424         -53.8538         82.0432       -0.0103372         148.053
0.547                  -0.577923        -148.336         -53.5075         80.6122         -53.5077         80.6129       -0.0102659         147.984
0.548                  -0.616315         -149.07         -53.1584         79.1307         -53.1586         79.1314       -0.0101552         147.914
0.549                  -0.657762         -149.81         -52.8065         77.5953         -52.8067          77.596       -0.0100159         147.844
0.55                   -0.702522        -150.558          -52.452         76.0036         -52.4522         76.0042      -0.00988009         147.773
0.551                  -0.750869         -151.31         -52.0953         74.3529         -52.0955         74.3534      -0.00980082         147.701
0.552                  -0.803097        -152.068         -51.7366         72.6405         -51.7368          72.641      -0.00983129         147.629
0.553                  -0.859516        -152.828         -51.3764         70.8637         -51.3765         70.8641      -0.00999128         147.556
0.554                  -0.920452         -153.59          -51.015         69.0198         -51.0151         69.0202       -0.0102555         147.484
0.555                   -0.98624        -154.351         -50.6529         67.1061          -50.653         67.1065       -0.0105759         147.412
0.556                   -1.05723        -155.109         -50.2907         65.1201         -50.2908         65.1204       -0.0109102         147.341
0.557                   -1.13375        -155.861         -49.9289         63.0592          -49.929         63.0595       -0.0112332          147.27
0.558                   -1.21616        -156.603         -49.5682         60.9211         -49.5683         60.9215       -0.0115345         147.199
0.559                   -1.30475        -157.332         -49.2093         58.7038         -49.2094         58.7041       -0.0118124         147.128
0.56                    -1.39982        -158.043         -48.8531         56.4055         -48.8532         56.4058       -0.0120689         147.057
0.561                   -1.50157        -158.729         -48.5004         54.0248         -48.5005         54.0251       -0.0123074         146.986
0.562                   -1.61015        -159.385         -48.1522         51.5609         -48.1523         51.5611       -0.0125313         146.915
0.563                   -1.72558        -160.004         -47.8094         49.0132         -47.8094         49.0134       -0.0127438         146.844
0.564                   -1.84773        -160.577         -47.4731         46.3824         -47.4731         46.3825       -0.0129473         146.772
0.565                   -1.97628        -161.096         -47.1444         43.6694         -47.1444         43.6695       -0.0131438         146.701
0.566                   -2.11067        -161.551         -46.8244         40.8762         -46.8244         40.8763       -0.0133351         146.629
0.567                   -2.25007        -161.934         -46.5143         38.0059         -46.5143         38.0059       -0.0135223         146.557
0.568                   -2.39331        -162.235         -46.2152         35.0622         -46.2152         35.0622       -0.0137065         146.485
0.569                   -2.53885        -162.445         -45.9282         32.0503         -45.9282         32.0503       -0.0138885         146.413
0.57                    -2.68478        -162.555         -45.6542         28.9761         -45.6542          28.976       -0.0140691         146.341
0.571                   -2.82882        -162.562         -45.3943         25.8466         -45.3943         25.8465       -0.0142487         146.269
0.572                   -2.96835         -162.46         -45.1493         22.6698         -45.1492         22.6696       -0.0144277         146.196
0.573                    -3.1005         -162.25         -44.9197         19.4542         -44.9196         19.4539       -0.0146066         146.124
0.574                   -3.22225        -161.938          -44.706         16.2093          -44.706          16.209       -0.0147856         146.051
0.575                   -3.33065        -161.531         -44.5087         12.9447         -44.5086         12.9443        -0.014965         145.978
0.576                   -3.42299        -161.044         -44.3277         9.67044         -44.3276         9.66996        -0.015145         145.905
0.577                   -3.49698        -160.494         -44.1629         6.39629         -44.1628         6.39575       -0.0153258         145.832
0.578                   -3.55096        -159.902         -44.0141          3.1319          -44.014         3.13128       -0.0155075         145.758
0.579                   -3.58404        -159.291         -43.8808       -0.113605         -43.8807       -0.114292       -0.0156903         145.685
0.58                    -3.59614        -158.687         -43.7623        -3.33178         -43.7622        -3.33253       -0.0158743         145.611
0.581                   -3.58799         -158.11         -43.6578          -6.515         -43.6577        -6.51581       -0.0160596         145.537
0.582                     -3.561        -157.582         -43.5664        -9.65656         -43.5663        -9.65744       -0.0162462         145.463
0.583                   -3.51716        -157.121         -43.4872        -12.7508         -43.4871        -12.7517       -0.0164344         145.389
0.584                   -3.45881        -156.739         -43.4191         -15.793          -43.419         -15.794       -0.0166241         145.315
0.585                    -3.3885        -156.447         -43.3611        -18.7796          -43.361        -18.7806       -0.0168155          145.24
0.586                   -3.30876        -156.248          -43.312        -21.7078         -43.3119        -21.7089       -0.0170085         145.165
0.587                   -3.22205        -156.146         -43.2708        -24.5759         -43.2708         -24.577       -0.0172033          145.09
0.588                    -3.1306        -156.139         -43.2366         -27.383         -43.2365        -27.3841       -0.0173998         145.015
0.589                   -3.03639        -156.223         -43.2082        -30.1288         -43.2082        -30.1299       -0.0175983          144.94
0.59                     -2.9411        -156.396         -43.1849        -32.8137         -43.1848        -32.8148       -0.0177986         144.865
0.591                   -2.84613         -156.65         -43.1657        -35.4387         -43.1657        -35.4398       -0.0180009         144.789
0.592                   -2.75261         -156.98         -43.1499         -38.005         -43.1499        -38.0062       -0.0182052         144.714
0.593                   -2.66141        -157.379         -43.1368        -40.5146         -43.1368        -40.5156       -0.0184115         144.638
0.594                    -2.5732        -157.841         -43.1257        -42.9692         -43.1256        -42.9702       -0.0186199         144.562
0.595                   -2.48848         -158.36          -43.116        -45.3711          -43.116        -45.3721       -0.0188304         144.485
0.596                   -2.40756         -158.93         -43.1073        -47.7226         -43.1072        -47.7236       -0.0190431         144.409
0.597                   -2.33066        -159.546          -43.099        -50.0262          -43.099        -50.0272        -0.019258         144.332
0.598                    -2.2579        -160.203         -43.0908        -52.2842         -43.0908        -52.2851       -0.0194752         144.256
0.599                   -2.18931        -160.897         -43.0824        -54.4992         -43.0823        -54.5001       -0.0196946         144.179
0.6                     -2.12488        -161.625         -43.0733        -56.6735         -43.0733        -56.6744       -0.0199164         144.101
0.601                   -2.06454        -162.382         -43.0635        -58.8097         -43.0635        -58.8105       -0.0201406         144.024
0.602                    -2.0082        -163.166         -43.0526        -60.9099         -43.0526        -60.9107       -0.0203671         143.947
0.603                   -1.95575        -163.974         -43.0405        -62.9765         -43.0405        -62.9772       -0.0205962         143.869
0.604                   -1.90706        -164.805          -43.027        -65.0117          -43.027        -65.0124       -0.0208277         143.791
0.605                   -1.86199        -165.656          -43.012        -67.0176          -43.012        -67.0182       -0.0210618         143.713
0.606                   -1.82042        -166.525         -42.9954        -68.9961         -42.9954        -68.9966       -0.0212984         143.634
0.607                   -1.78219        -167.412         -42.9772        -70.9491         -42.9772        -70.9496       -0.0215377         143.556
0.608                   -1.74719        -168.315         -42.9572        -72.8786         -42.9572         -72.879       -0.0217796         143.477
0.609                   -1.71527        -169.232         -42.9354        -74.7861         -42.9354        -74.7865       -0.0220243         143.398
0.61                    -1.68632        -170.164         -42.9118        -76.6734         -42.9118        -76.6737       -0.0222717         143.319
0.611                   -1.66021         -171.11         -42.8864        -78.5419         -42.8864        -78.5421        -0.022522         143.239
0.612                   -1.63684        -172.069         -42.8591        -80.3931         -42.8591        -80.3933       -0.0227751          143.16
0.613                   -1.61611         -173.04           -42.83        -82.2284           -42.83        -82.2285       -0.0230311          143.08
0.614                   -1.59793        -174.024         -42.7991         -84.049          -42.799        -84.0491         -0.02329             143
0.615                    -1.5822        -175.019         -42.7663        -85.8562         -42.7663        -85.8563        -0.023552         142.919
0.616                   -1.56885        -176.027         -42.7318        -87.6511         -42.7318        -87.6512        -0.023817         142.839
0.617                   -1.55782        -177.046         -42.6955        -89.4348         -42.6954        -89.4348       -0.0240851         142.758
0.618                   -1.54904        -178.077         -42.6574        -91.2083         -42.6574        -91.2082       -0.0243564         142.677
0.619                   -1.54245        -179.119         -42.6177        -92.9725         -42.6177        -92.9724       -0.0246309         142.596
0.62                    -1.53801         179.826         -42.5763        -94.7284         -42.5763        -94.7282       -0.0249087         142.514
0.621                   -1.53568          178.76         -42.5333        -96.4767         -42.5333        -96.4765       -0.0251898         142.433
0.622                   -1.53543         177.682         -42.4887        -98.2183         -42.4887        -98.2181       -0.0254743         142.351
0.623                   -1.53722         176.592         -42.4426        -99.9539         -42.4425        -99.9536       -0.0257622         142.268
0.624                   -1.54105          175.49         -42.3949        -101.684         -42.3949        -101.684       -0.0260536         142.186
0.625                   -1.54688         174.375         -42.3459         -103.41         -42.3458         -103.41       -0.0263487         142.103
0.626                   -1.55472         173.247         -42.2954        -105.131         -42.2953        -105.131       -0.0266473          142.02
0.627                   -1.56456         172.106         -42.2435         -106.85         -42.2435        -106.849       -0.0269497         141.937
0.628                    -1.5764         170.953         -42.1904        -108.565         -42.1903        -108.565       -0.0272558         141.853
0.629                   -1.59025         169.785         -42.1359        -110.278         -42.1358        -110.278       -0.0275658         141.769
0.63                    -1.60613         168.604         -42.0803        -111.989         -42.0802        -111.989       -0.0278797         141.685
0.631                   -1.62405         167.408         -42.0234        -113.699         -42.0233        -113.699       -0.0281976         141.601
0.632                   -1.64403         166.198         -41.9655        -115.408         -41.9654        -115.408       -0.0285196         141.516
0.633                   -1.66612         164.973         -41.9064        -117.117         -41.9063        -117.116       -0.0288457         141.431
0.634                   -1.69033         163.732         -41.8463        -118.825         -41.8462        -118.825        -0.029176         141.346
0.635                   -1.71672         162.476         -41.7852        -120.534         -41.7851        -120.534       -0.0295106         141.261
0.636                   -1.74532         161.204         -41.7232        -122.243         -41.7231        -122.243       -0.0298496         141.175
0.637                   -1.77618         159.915         -41.6602        -123.954         -41.6601        -123.954        -0.030193         141.089
0.638                   -1.80936         158.609         -41.5964        -125.666         -41.5963        -125.666        -0.030541         141.002
0.639                   -1.84493         157.285         -41.5318         -127.38         -41.5317        -127.379       -0.0308937         140.916
0.64                    -1.88294         155.944         -41.4664        -129.095         -41.4663        -129.095       -0.0312511         140.829
0.641                   -1.92347         154.585         -41.4003        -130.813         -41.4002        -130.813       -0.0316134         140.741
0.642                    -1.9666         153.206         -41.3335        -132.534         -41.3334        -132.534       -0.0319805         140.653
0.643                    -2.0124         151.809         -41.2661        -134.258          -41.266        -134.258       -0.0323527         140.565
0.644                   -2.06096         150.391         -41.1981        -135.985          -41.198        -135.985       -0.0327301         140.477
0.645                   -2.11239         148.953         -41.1295        -137.715         -41.1295        -137.715       -0.0331127         140.388
0.646                   -2.16677         147.494         -41.0605        -139.449         -41.0604        -139.449       -0.0335006         140.299
0.647                   -2.22423         146.014          -40.991        -141.187         -40.9909        -141.187        -0.033894          140.21
0.648                   -2.28485         144.511         -40.9211        -142.929          -40.921        -142.929       -0.0342929          140.12
0.649                   -2.34878         142.987         -40.8509        -144.676         -40.8508        -144.676       -0.0346976          140.03
0.65                    -2.41613         141.439         -40.7804        -146.428         -40.7803        -146.427       -0.0351081          139.94
0.651                   -2.48703         139.867         -40.7096        -148.184         -40.7095        -148.184       -0.0355245         139.849
0.652                   -2.56163         138.271         -40.6386        -149.945         -40.6386        -149.945        -0.035947         139.758
0.653                   -2.64006         136.649         -40.5675        -151.712         -40.5674        -151.712       -0.0363757         139.666
0.654                   -2.72249         135.002         -40.4963        -153.484         -40.4963        -153.484       -0.0368107         139.574
0.655                   -2.80907         133.329         -40.4251        -155.262          -40.425        -155.262       -0.0372522         139.482
0.656                   -2.89997         131.629         -40.3539        -157.045         -40.3538        -157.045       -0.0377003         139.389
0.657                   -2.99536         129.901         -40.2827        -158.835         -40.2827        -158.835       -0.0381552         139.296
0.658                   -3.09543         128.145         -40.2118         -160.63         -40.2118         -160.63        -0.038617         139.203
0.659                   -3.20037         126.359          -40.141        -162.432          -40.141        -162.432       -0.0390858         139.109
0.66                    -3.31037         124.544         -40.0705        -164.241         -40.0705        -164.241       -0.0395619         139.014
0.661                   -3.42565         122.697         -40.0004        -166.055         -40.0004        -166.055       -0.0400454         138.919
0.662                   -3.54641         120.819         -39.9306        -167.876         -39.9306        -167.876       -0.0405364         138.824
0.663                   -3.67288         118.908         -39.8614        -169.704         -39.8614        -169.704       -0.0410352         138.729
0.664                   -3.80528         116.964         -39.7926        -171.539         -39.7926        -171.539       -0.0415419         138.632
0.665                   -3.94386         114.985         -39.7245         -173.38         -39.7245         -173.38       -0.0420567         138.536
0.666                   -4.08885          112.97         -39.6571        -175.228         -39.6571        -175.228       -0.0425798         138.439
0.667                   -4.24051         110.919         -39.5904        -177.082         -39.5904        -177.082       -0.0431114         138.341
0.668                    -4.3991         108.829         -39.5246        -178.943         -39.5246        -178.943       -0.0436517         138.243
0.669                   -4.56488         106.701         -39.4596         179.189         -39.4597         179.189       -0.0442009         138.145
0.67                    -4.73813         104.531         -39.3957         177.315         -39.3957         177.315       -0.0447592         138.046
0.671                   -4.91912         102.319         -39.3328         175.435         -39.3329         175.435       -0.0453268         137.947
0.672                   -5.10812         100.063         -39.2711         173.548         -39.2712         173.548        -0.045904         137.847
0.673                   -5.30544         97.7604         -39.2106         171.655         -39.2107         171.655        -0.046491         137.746
0.674                   -5.51135         95.4101         -39.1515         169.757         -39.1515         169.757        -0.047088         137.645
0.675                   -5.72614         93.0094         -39.0937         167.853         -39.0937         167.853       -0.0476953         137.544
0.676                   -5.95009         90.5557         -39.0373         165.944         -39.0374         165.944       -0.0483131         137.442
0.677                    -6.1835         88.0461         -38.9826         164.029         -38.9826         164.029       -0.0489417         137.339
0.678                   -6.42663         85.4775         -38.9294         162.111         -38.9294         162.111       -0.0495814         137.236
0.679                   -6.67974         82.8463         -38.8779         160.187         -38.8779         160.188       -0.0502325         137.132
0.68                    -6.94308         80.1484         -38.8282         158.261         -38.8282         158.261       -0.0508952         137.028
0.681                   -7.21687         77.3793         -38.7803          156.33         -38.7803         156.331       -0.0515698         136.923
0.682                    -7.5013         74.5339         -38.7343         154.397         -38.7344         154.398       -0.0522567         136.818
0.683                    -7.7965         71.6066         -38.6903         152.462         -38.6903         152.462       -0.0529561         136.712
0.684                   -8.10257         68.5908         -38.6483         150.525         -38.6484         150.525       -0.0536685         136.605
0.685                   -8.41951         65.4794         -38.6084         148.587         -38.6084         148.587        -0.054394         136.498
0.686                   -8.74722         62.2642         -38.5706         146.648         -38.5706         146.648       -0.0551331          136.39
0.687                    -9.0855         58.9361          -38.535         144.709          -38.535         144.709       -0.0558862         136.281
0.688                   -9.43397         55.4852         -38.5016         142.771         -38.5016         142.771       -0.0566535         136.172
0.689                   -9.79203         51.9002         -38.4704         140.835         -38.4705         140.835       -0.0574356         136.062
0.69                    -10.1589         48.1691         -38.4415         138.901         -38.4416         138.901       -0.0582327         135.951
0.691                   -10.5333         44.2785          -38.415          136.97          -38.415          136.97       -0.0590453          135.84
0.692                   -10.9138         40.2144         -38.3907         135.042         -38.3907         135.042       -0.0598737         135.728
0.693                   -11.2982         35.9622         -38.3687         133.119         -38.3687         133.119       -0.0607186         135.615
0.694                   -11.6841         31.5073          -38.349         131.202          -38.349         131.202       -0.0615802         135.502
0.695                   -12.0682         26.8355         -38.3316          129.29         -38.3316          129.29        -0.062459         135.387
0.696                   -12.4463         21.9344         -38.3165         127.386         -38.3165         127.386       -0.0633556         135.272