! TOUCHSTONE file generated by CST MICROWAVE STUDIO
! Date and time: Sat Nov 14 20:03:32 2020
! Project name: Scenario_1_Planar_Body_Tissue_Out_of_Line.cst
! Parameters = {dy1=-294.1; L_HA=400; Ltissue=700; MT=2.54; Rad_Dielectric=30; Rad_Lower=7.3; Rad_Upper=30; Wtissue=700; a_HA=580; a_WG=246; b_HA=500; b_WG=121; c_HA=0; c_WG=187; d_feed=85; dx1=693; h_feed=15; h_lower=18; h_upper=40; hfat=3; hgap=25; hmuscle=50; hskin=1.5}
! Header version: 2018
! Port assignment regex: !\s*Touchstone port\s*([0-9]+)\s*=\s*(CST MWS port|CST DS port)\s*([0-9]+|Zmin|Zmax)\s*\(\"(.*)\"\)(\s*mode\s*([0-9]+))?.*
! Touchstone port assignment:
! Touchstone port 1 = CST MWS port 1 ("")
! Touchstone port 2 = CST MWS port 2 ("")
# GHz S DB R 50
0.5                       -0.176        -121.669         -63.1417         172.253         -63.1414         172.251      -0.00775858         151.142
0.501                  -0.177683        -122.102          -63.101         171.063         -63.1007         171.062      -0.00781224         151.077
0.502                  -0.179482        -122.537         -63.0581         169.855         -63.0579         169.854       -0.0078667         151.012
0.503                    -0.1814        -122.974          -63.013          168.63         -63.0128          168.63      -0.00792199         150.947
0.504                  -0.183443        -123.415         -62.9656         167.387         -62.9655         167.388      -0.00797811         150.881
0.505                  -0.185614        -123.858         -62.9159         166.126         -62.9158         166.128      -0.00803509         150.816
0.506                  -0.187919        -124.304         -62.8637         164.848         -62.8638          164.85      -0.00809295          150.75
0.507                  -0.190362        -124.753         -62.8091         163.551         -62.8092         163.554       -0.0081517         150.684
0.508                  -0.192949        -125.204         -62.7518         162.237          -62.752         162.241      -0.00821136         150.619
0.509                  -0.195685        -125.659          -62.692         160.904         -62.6922         160.909      -0.00827196         150.553
0.51                   -0.198576        -126.117         -62.6294         159.554         -62.6297         159.558       -0.0083335         150.487
0.511                  -0.201628        -126.578         -62.5641         158.184         -62.5644          158.19      -0.00839601         150.421
0.512                  -0.204848        -127.042         -62.4959         156.797         -62.4963         156.802       -0.0084595         150.355
0.513                  -0.208243        -127.509         -62.4248         155.391         -62.4252         155.397      -0.00852399         150.288
0.514                  -0.211819        -127.979         -62.3506         153.966         -62.3512         153.973      -0.00858949         150.222
0.515                  -0.215584        -128.452         -62.2734         152.522          -62.274          152.53      -0.00865603         150.156
0.516                  -0.219546        -128.929         -62.1931          151.06         -62.1938         151.068      -0.00872362         150.089
0.517                  -0.223714        -129.409         -62.1096          149.58         -62.1103         149.588      -0.00879228         150.023
0.518                  -0.228096        -129.893         -62.0228          148.08         -62.0235         148.089      -0.00886203         149.956
0.519                  -0.232702         -130.38         -61.9327         146.562         -61.9335         146.571      -0.00893287          149.89
0.52                   -0.237541        -130.871         -61.8391         145.025           -61.84         145.035      -0.00900483         149.823
0.521                  -0.242624        -131.365         -61.7422          143.47         -61.7431         143.479      -0.00907793         149.756
0.522                  -0.247962        -131.863         -61.6417         141.895         -61.6426         141.905      -0.00915217         149.689
0.523                  -0.253567        -132.364         -61.5377         140.302         -61.5386         140.312      -0.00922758         149.622
0.524                   -0.25945        -132.869           -61.43         138.691          -61.431         138.701      -0.00930418         149.555
0.525                  -0.265625        -133.379         -61.3187          137.06         -61.3198         137.071      -0.00938196         149.488
0.526                  -0.272106        -133.892         -61.2038         135.411         -61.2048         135.422      -0.00946097          149.42
0.527                  -0.278907        -134.409         -61.0851         133.743         -61.0862         133.754       -0.0095412         149.353
0.528                  -0.286044         -134.93         -60.9626         132.056         -60.9637         132.067      -0.00962267         149.285
0.529                  -0.293533        -135.455         -60.8364         130.351         -60.8375         130.362       -0.0097054         149.218
0.53                   -0.301391        -135.984         -60.7063         128.627         -60.7075         128.638       -0.0097894          149.15
0.531                  -0.309638        -136.517         -60.5724         126.884         -60.5736         126.895      -0.00987469         149.082
0.532                  -0.318291        -137.055         -60.4347         125.122          -60.436         125.134      -0.00996128         149.014
0.533                  -0.327373        -137.597         -60.2932         123.342         -60.2944         123.353       -0.0100492         148.946
0.534                  -0.336905        -138.144         -60.1479         121.542         -60.1491         121.554       -0.0101384         148.878
0.535                   -0.34691        -138.695         -59.9987         119.724         -59.9999         119.735        -0.010229          148.81
0.536                  -0.357414         -139.25         -59.8457         117.886          -59.847         117.898        -0.010321         148.742
0.537                  -0.368443         -139.81          -59.689         116.029         -59.6902         116.041       -0.0104143         148.673
0.538                  -0.380024        -140.374         -59.5285         114.153         -59.5298         114.165        -0.010509         148.605
0.539                  -0.392187        -140.944         -59.3644         112.258         -59.3656         112.269       -0.0106051         148.536
0.54                   -0.404965        -141.518         -59.1966         110.342         -59.1978         110.354       -0.0107026         148.467
0.541                   -0.41839        -142.096         -59.0252         108.407         -59.0264         108.418       -0.0108015         148.399
0.542                  -0.432497         -142.68         -58.8503         106.452         -58.8515         106.463       -0.0109019          148.33
0.543                  -0.447326        -143.268         -58.6719         104.476         -58.6731         104.487       -0.0110037         148.261
0.544                  -0.462916        -143.861         -58.4903         102.479         -58.4914          102.49        -0.011107         148.192
0.545                  -0.479308        -144.459         -58.3053         100.461         -58.3064         100.472       -0.0112118         148.122
0.546                  -0.496549        -145.062         -58.1172         98.4222         -58.1183         98.4325        -0.011318         148.053
0.547                  -0.514687        -145.669         -57.9261         96.3612         -57.9272         96.3713       -0.0114258         147.984
0.548                   -0.53377        -146.281         -57.7322         94.2781         -57.7332         94.2879        -0.011535         147.914
0.549                  -0.553854        -146.898         -57.5354         92.1723         -57.5364         92.1819       -0.0116458         147.844
0.55                   -0.574994         -147.52         -57.3361         90.0436          -57.337         90.0529       -0.0117581         147.775
0.551                  -0.597249        -148.146         -57.1343         87.8913         -57.1352         87.9003        -0.011872         147.705
0.552                  -0.620683        -148.776         -56.9303          85.715         -56.9312         85.7238       -0.0119874         147.635
0.553                  -0.645359        -149.411         -56.7243         83.5144         -56.7251         83.5229       -0.0121044         147.564
0.554                  -0.671348         -150.05         -56.5164         81.2889         -56.5171          81.297        -0.012223         147.494
0.555                  -0.698719        -150.692         -56.3068         79.0381         -56.3076         79.0459       -0.0123432         147.424
0.556                  -0.727548        -151.338         -56.0959         76.7616         -56.0966          76.769        -0.012465         147.353
0.557                  -0.757912        -151.987         -55.8838          74.459         -55.8845          74.466       -0.0125884         147.283
0.558                  -0.789888        -152.639         -55.6709         72.1298         -55.6715         72.1365       -0.0127134         147.212
0.559                  -0.823558        -153.294         -55.4573         69.7739         -55.4578         69.7802       -0.0128401         147.141
0.56                   -0.859002         -153.95         -55.2434         67.3908         -55.2439         67.3968       -0.0129684          147.07
0.561                  -0.896304        -154.607         -55.0295         64.9806         -55.0299         64.9861       -0.0130983         146.999
0.562                  -0.935543        -155.265         -54.8159         62.5429         -54.8163          62.548         -0.01323         146.928
0.563                  -0.976799        -155.923         -54.6029         60.0779         -54.6032         60.0826       -0.0133633         146.856
0.564                   -1.02015        -156.579         -54.3908         57.5856         -54.3911         57.5898       -0.0134983         146.785
0.565                   -1.06565        -157.233           -54.18         55.0662         -54.1803           55.07        -0.013635         146.713
0.566                   -1.11338        -157.884         -53.9709         52.5202         -53.9711         52.5235       -0.0137734         146.642
0.567                   -1.16339        -158.531         -53.7637         49.9479         -53.7639         49.9507       -0.0139135          146.57
0.568                    -1.2157        -159.171         -53.5589           47.35          -53.559         47.3525       -0.0140554         146.498
0.569                   -1.27034        -159.804         -53.3568         44.7275         -53.3569         44.7294        -0.014199         146.426
0.57                     -1.3273        -160.429         -53.1577         42.0811         -53.1578         42.0826       -0.0143443         146.353
0.571                   -1.38656        -161.042          -52.962         39.4122         -52.9621         39.4133       -0.0144914         146.281
0.572                   -1.44806        -161.643         -52.7701         36.7221         -52.7701         36.7227       -0.0146403         146.208
0.573                   -1.51169        -162.229         -52.5822         34.0123         -52.5822         34.0125       -0.0147909         146.136
0.574                   -1.57732        -162.798         -52.3987         31.2846         -52.3986         31.2843       -0.0149434         146.063
0.575                   -1.64476        -163.349         -52.2198         28.5408         -52.2197         28.5401       -0.0150976          145.99
0.576                   -1.71378        -163.879         -52.0458         25.7829         -52.0457         25.7819       -0.0152537         145.917
0.577                   -1.78407        -164.386         -51.8769         23.0133         -51.8769         23.0118       -0.0154115         145.843
0.578                   -1.85527        -164.868         -51.7134         20.2341         -51.7133         20.2323       -0.0155712          145.77
0.579                   -1.92696        -165.324         -51.5553         17.4479         -51.5553         17.4458       -0.0157328         145.696
0.58                    -1.99866        -165.752         -51.4029         14.6572         -51.4029         14.6547       -0.0158961         145.622
0.581                   -2.06983        -166.151         -51.2562         11.8645         -51.2562         11.8618       -0.0160614         145.549
0.582                   -2.13987        -166.521         -51.1153         9.07246         -51.1153          9.0695       -0.0162285         145.474
0.583                   -2.20815        -166.862         -50.9802         6.28371         -50.9802         6.28053       -0.0163975           145.4
0.584                     -2.274        -167.173         -50.8508         3.50083         -50.8509         3.49745       -0.0165684         145.326
0.585                   -2.33675        -167.458         -50.7271        0.726336         -50.7272        0.722793       -0.0167411         145.251
0.586                   -2.39574        -167.717         -50.6091        -2.03732         -50.6092          -2.041       -0.0169158         145.177
0.587                   -2.45032        -167.954         -50.4965         -4.7878         -50.4966        -4.79159       -0.0170925         145.102
0.588                   -2.49994        -168.173         -50.3891         -7.5229         -50.3893        -7.52677        -0.017271         145.027
0.589                    -2.5441        -168.377         -50.2869        -10.2406          -50.287        -10.2445       -0.0174516         144.952
0.59                     -2.5824        -168.571         -50.1895         -12.939         -50.1897        -12.9429       -0.0176341         144.876
0.591                   -2.61458        -168.762         -50.0968        -15.6164         -50.0969        -15.6203       -0.0178186         144.801
0.592                    -2.6405        -168.954         -50.0083        -18.2712         -50.0085        -18.2752        -0.018005         144.725
0.593                   -2.66015        -169.152          -49.924        -20.9023         -49.9242        -20.9062       -0.0181936         144.649
0.594                   -2.67365        -169.364         -49.8434        -23.5086         -49.8436        -23.5123       -0.0183841         144.573
0.595                   -2.68127        -169.593         -49.7662         -26.089         -49.7665        -26.0927       -0.0185767         144.497
0.596                   -2.68338        -169.845         -49.6923        -28.6429         -49.6925        -28.6466       -0.0187714         144.421
0.597                   -2.68044        -170.125         -49.6211        -31.1699         -49.6214        -31.1734       -0.0189682         144.344
0.598                   -2.67299        -170.435         -49.5525        -33.6697         -49.5528         -33.673       -0.0191672         144.267
0.599                   -2.66162        -170.779         -49.4861         -36.142         -49.4864        -36.1452       -0.0193683          144.19
0.6                     -2.64697        -171.159         -49.4217        -38.5869          -49.422          -38.59       -0.0195716         144.113
0.601                   -2.62966        -171.578         -49.3588        -41.0047         -49.3591        -41.0076       -0.0197771         144.036
0.602                   -2.61034        -172.036         -49.2973        -43.3955         -49.2976        -43.3983       -0.0199849         143.958
0.603                   -2.58962        -172.533         -49.2369        -45.7601         -49.2372        -45.7626        -0.020195          143.88
0.604                   -2.56807         -173.07         -49.1773        -48.0987         -49.1776        -48.1012       -0.0204075         143.802
0.605                   -2.54625        -173.647         -49.1183        -50.4123         -49.1186        -50.4146       -0.0206224         143.724
0.606                   -2.52464        -174.262         -49.0596        -52.7015         -49.0599        -52.7036       -0.0208398         143.646
0.607                   -2.50371        -174.916         -49.0011        -54.9673         -49.0014        -54.9692       -0.0210596         143.567
0.608                   -2.48386        -175.606         -48.9424        -57.2105         -48.9427        -57.2123       -0.0212821         143.489
0.609                   -2.46545        -176.331         -48.8835        -59.4321         -48.8838        -59.4338       -0.0215073          143.41
0.61                     -2.4488        -177.091         -48.8241        -61.6333         -48.8244        -61.6348       -0.0217351          143.33
0.611                   -2.43418        -177.884         -48.7642         -63.815         -48.7644        -63.8163       -0.0219658         143.251
0.612                   -2.42185        -178.707         -48.7034        -65.9784         -48.7036        -65.9797       -0.0221994         143.171
0.613                   -2.41201        -179.561         -48.6418        -68.1248          -48.642        -68.1258        -0.022436         143.091
0.614                   -2.40484         179.556         -48.5791        -70.2551         -48.5793        -70.2561       -0.0226757         143.011
0.615                   -2.40051         178.645         -48.5153        -72.3707         -48.5155        -72.3716       -0.0229186         142.931
0.616                   -2.39916         177.709         -48.4503        -74.4728         -48.4505        -74.4735       -0.0231648          142.85
0.617                   -2.40092         176.746          -48.384        -76.5625         -48.3842        -76.5632       -0.0234144          142.77
0.618                   -2.40591          175.76         -48.3163        -78.6411         -48.3165        -78.6417       -0.0236675         142.688
0.619                   -2.41422         174.749         -48.2472        -80.7098         -48.2474        -80.7103       -0.0239243         142.607
0.62                    -2.42597         173.717         -48.1766        -82.7697         -48.1767        -82.7701       -0.0241849         142.526
0.621                   -2.44125         172.662         -48.1045        -84.8222         -48.1046        -84.8225       -0.0244494         142.444
0.622                   -2.46016         171.586         -48.0309        -86.8683         -48.0309        -86.8686       -0.0247179         142.362
0.623                    -2.4828         170.489         -47.9556        -88.9093         -47.9557        -88.9095       -0.0249905         142.279
0.624                   -2.50926         169.372         -47.8789        -90.9463         -47.8789        -90.9465       -0.0252675         142.197
0.625                   -2.53966         168.236         -47.8005        -92.9804         -47.8006        -92.9806       -0.0255488         142.114
0.626                    -2.5741          167.08         -47.7206        -95.0128         -47.7207         -95.013       -0.0258347         142.031
0.627                   -2.61269         165.906         -47.6392        -97.0446         -47.6392        -97.0447       -0.0261252         141.948
0.628                   -2.65557         164.713         -47.5563        -99.0768         -47.5563        -99.0769       -0.0264205         141.864
0.629                   -2.70287         163.503         -47.4719         -101.11         -47.4719        -101.111       -0.0267207          141.78
0.63                    -2.75473         162.275         -47.3861        -103.147         -47.3861        -103.147       -0.0270258         141.696
0.631                   -2.81131         161.029          -47.299        -105.186          -47.299        -105.187        -0.027336         141.612
0.632                   -2.87277         159.767         -47.2106         -107.23         -47.2106        -107.231       -0.0276514         141.527
0.633                   -2.93929         158.489         -47.1211         -109.28          -47.121         -109.28       -0.0279721         141.442
0.634                   -3.01106         157.194         -47.0304        -111.336         -47.0303        -111.336       -0.0282981         141.356
0.635                   -3.08828         155.884         -46.9387        -113.398         -46.9386        -113.398       -0.0286296         141.271
0.636                   -3.17118         154.559          -46.846        -115.469          -46.846        -115.469       -0.0289665         141.185
0.637                   -3.25998         153.219         -46.7526        -117.548         -46.7526        -117.548       -0.0293091         141.099
0.638                   -3.35493         151.865         -46.6585        -119.636         -46.6584        -119.637       -0.0296573         141.012
0.639                    -3.4563         150.499         -46.5638        -121.734         -46.5638        -121.735       -0.0300112         140.925
0.64                    -3.56435          149.12         -46.4687        -123.843         -46.4687        -123.843        -0.030371         140.838
0.641                    -3.6794         147.729         -46.3733        -125.963         -46.3733        -125.963       -0.0307365         140.751
0.642                   -3.80173         146.329         -46.2778        -128.093         -46.2777        -128.094        -0.031108         140.663
0.643                   -3.93168         144.919         -46.1822        -130.236         -46.1822        -130.237       -0.0314855         140.575
0.644                    -4.0696         143.501         -46.0868        -132.391         -46.0868        -132.391        -0.031869         140.487
0.645                   -4.21583         142.077         -45.9918        -134.557         -45.9918        -134.558       -0.0322587         140.398
0.646                   -4.37076         140.649         -45.8972        -136.736         -45.8972        -136.737       -0.0326545         140.309
0.647                   -4.53478         139.217         -45.8033        -138.928         -45.8033        -138.928       -0.0330566         140.219
0.648                   -4.70829         137.785         -45.7102        -141.131         -45.7102        -141.132        -0.033465          140.13
0.649                   -4.89172         136.355         -45.6181        -143.347         -45.6181        -143.348       -0.0338798          140.04
0.65                     -5.0855          134.93         -45.5272        -145.575         -45.5272        -145.575       -0.0343012         139.949
0.651                    -5.2901         133.512         -45.4376        -147.814         -45.4376        -147.814       -0.0347292         139.858
0.652                   -5.50598         132.106         -45.3495        -150.064         -45.3495        -150.064       -0.0351638         139.767
0.653                   -5.73361         130.714          -45.263        -152.324          -45.263        -152.325       -0.0356053         139.675
0.654                   -5.97349         129.341         -45.1784        -154.595         -45.1784        -154.595       -0.0360538         139.584
0.655                   -6.22612         127.993         -45.0957        -156.874         -45.0957        -156.875       -0.0365092         139.491
0.656                   -6.49199         126.673         -45.0151        -159.162         -45.0151        -159.162       -0.0369719         139.398
0.657                   -6.77162         125.389         -44.9368        -161.457         -44.9368        -161.457       -0.0374418         139.305
0.658                   -7.06551         124.147         -44.8608        -163.758         -44.8608        -163.759       -0.0379192         139.212
0.659                   -7.37414         122.954         -44.7873        -166.065         -44.7873        -166.065       -0.0384042         139.118
0.66                      -7.698         121.819         -44.7163        -168.375         -44.7163        -168.376        -0.038897         139.023
0.661                   -8.03752         120.751          -44.648        -170.689          -44.648        -170.689       -0.0393977         138.929
0.662                   -8.39309         119.761         -44.5823        -173.004         -44.5824        -173.004       -0.0399064         138.834
0.663                   -8.76504         118.861         -44.5195         -175.32         -44.5195         -175.32       -0.0404235         138.738
0.664                    -9.1536         118.064         -44.4594        -177.634         -44.4594        -177.634        -0.040949         138.642
0.665                   -9.55886         117.385         -44.4021        -179.946         -44.4022        -179.946       -0.0414831         138.545
0.666                   -9.98072         116.842         -44.3476         177.745         -44.3477         177.745       -0.0420261         138.448
0.667                   -10.4188         116.453          -44.296         175.442          -44.296         175.442       -0.0425782         138.351
0.668                   -10.8725         116.239          -44.247         173.145         -44.2471         173.145       -0.0431396         138.253
0.669                   -11.3405         116.226         -44.2008         170.856         -44.2008         170.856       -0.0437105         138.155
0.67                    -11.8211         116.437         -44.1572         168.577         -44.1572         168.577       -0.0442912         138.056
0.671                   -12.3117         116.903         -44.1161         166.307         -44.1161         166.307       -0.0448819         137.956
0.672                   -12.8088         117.651         -44.0775         164.049         -44.0775         164.049       -0.0454828         137.856
0.673                   -13.3075         118.712         -44.0412         161.804         -44.0412         161.804       -0.0460943         137.756
0.674                   -13.8014         120.113         -44.0071         159.572         -44.0072         159.572       -0.0467166         137.655
0.675                   -14.2824         121.877         -43.9752         157.355         -43.9752         157.355         -0.04735         137.554
0.676                   -14.7407         124.018         -43.9451         155.154         -43.9451         155.154       -0.0479947         137.452
0.677                   -15.1649         126.534         -43.9169         152.969         -43.9169         152.969       -0.0486511         137.349
0.678                   -15.5424         129.405         -43.8902         150.801         -43.8902         150.802       -0.0493196         137.246
0.679                   -15.8609         132.584         -43.8651         148.652         -43.8651         148.652       -0.0500003         137.142
0.68                    -16.1093         136.002         -43.8412         146.521         -43.8412         146.521       -0.0506937         137.038
0.681                   -16.2796         139.564         -43.8184         144.408         -43.8184         144.408       -0.0514001         136.933
0.682                    -16.368          143.16         -43.7966         142.315         -43.7966         142.315       -0.0521199         136.828
0.683                    -16.376         146.679         -43.7755         140.242         -43.7755         140.242       -0.0528534         136.722
0.684                   -16.3097         150.019         -43.7551         138.189         -43.7551         138.189        -0.053601         136.616
0.685                   -16.1787         153.099          -43.735         136.155          -43.735         136.155       -0.0543631         136.508
0.686                   -15.9949         155.861         -43.7152         134.142         -43.7152         134.142       -0.0551401         136.401
0.687                   -15.7706         158.275         -43.6955         132.149         -43.6955         132.149       -0.0559324         136.292
0.688                   -15.5175         160.331         -43.6757         130.175         -43.6757         130.175       -0.0567404         136.183
0.689                   -15.2459         162.037         -43.6556         128.222         -43.6556         128.222       -0.0575646         136.073
0.69                    -14.9644          163.41         -43.6351         126.288         -43.6351         126.288       -0.0584055         135.963
0.691                   -14.6798         164.476         -43.6141         124.374         -43.6141         124.374       -0.0592633         135.851
0.692                   -14.3974         165.263         -43.5923         122.479         -43.5923         122.479       -0.0601388          135.74
0.693                    -14.121         165.797         -43.5697         120.602         -43.5697         120.602       -0.0610323         135.627
0.694                   -13.8535         166.107         -43.5461         118.744         -43.5461         118.744       -0.0619443         135.514
0.695                   -13.5968         166.218         -43.5214         116.904         -43.5214         116.904       -0.0628754           135.4
0.696                   -13.3523         166.152         -43.4955         115.082         -43.4954         115.081        -0.063826         135.285