! TOUCHSTONE file generated by CST MICROWAVE STUDIO
! Date and time: Tue Nov 24 13:48:50 2020
! Project name: Scenario_1_Planar_Body_Tissue_Out_of_Line.cst
! Parameters = {dy1=294.1; L_HA=400; Ltissue=700; MT=2.54; Rad_Dielectric=30; Rad_Lower=7.3; Rad_Upper=30; Wtissue=700; a_HA=580; a_WG=246; b_HA=500; b_WG=121; c_HA=0; c_WG=187; d_feed=85; dx1=1039; h_feed=15; h_lower=18; h_upper=40; hfat=3; hgap=25; hmuscle=50; hskin=1.5}
! Header version: 2018
! Port assignment regex: !\s*Touchstone port\s*([0-9]+)\s*=\s*(CST MWS port|CST DS port)\s*([0-9]+|Zmin|Zmax)\s*\(\"(.*)\"\)(\s*mode\s*([0-9]+))?.*
! Touchstone port assignment:
! Touchstone port 1 = CST MWS port 1 ("")
! Touchstone port 2 = CST MWS port 2 ("")
# GHz S DB R 50
0.5                    -0.145755        -121.705         -65.7221         -29.436         -65.7212         -29.431      -0.00760728         151.159
0.501                  -0.148558        -122.142         -65.6253         -30.825         -65.6234        -30.8102      -0.00767172         151.094
0.502                  -0.151493        -122.583         -65.5267        -32.2408         -65.5239        -32.2159       -0.0077368         151.029
0.503                  -0.154568        -123.026         -65.4263        -33.6845         -65.4226        -33.6492      -0.00780252         150.964
0.504                  -0.157788        -123.472         -65.3239        -35.1572         -65.3194         -35.111      -0.00786889         150.898
0.505                  -0.161161        -123.921         -65.2197        -36.6598         -65.2144        -36.6026      -0.00793591         150.833
0.506                  -0.164694        -124.373         -65.1135        -38.1938         -65.1075        -38.1253      -0.00800359         150.767
0.507                  -0.168393        -124.827         -65.0052        -39.7602         -64.9987        -39.6802      -0.00807194         150.702
0.508                  -0.172269        -125.285         -64.8947        -41.3605         -64.8878        -41.2688      -0.00814097         150.636
0.509                   -0.17633        -125.746         -64.7821         -42.996         -64.7748        -42.8925      -0.00821068          150.57
0.51                   -0.180585         -126.21         -64.6672        -44.6683         -64.6597        -44.5529       -0.0082811         150.504
0.511                  -0.185044        -126.678         -64.5499        -46.3788         -64.5423        -46.2516      -0.00835221         150.438
0.512                   -0.18972        -127.148         -64.4302        -48.1292         -64.4226        -47.9904      -0.00842405         150.372
0.513                  -0.194623        -127.623         -64.3078        -49.9212         -64.3005        -49.7711       -0.0084966         150.306
0.514                  -0.199767          -128.1         -64.1827        -51.7565         -64.1758        -51.5955       -0.0085699          150.24
0.515                  -0.205166        -128.581         -64.0548         -53.637         -64.0483        -53.4657      -0.00864394         150.174
0.516                  -0.210834        -129.065         -63.9238        -55.5645          -63.918        -55.3837      -0.00871874         150.107
0.517                  -0.216787        -129.553         -63.7895        -57.5409         -63.7846        -57.3517      -0.00879432         150.041
0.518                  -0.223043        -130.045         -63.6518        -59.5682          -63.648        -59.3717      -0.00887068         149.974
0.519                   -0.22962        -130.541         -63.5104        -61.6483         -63.5078        -61.4459      -0.00894785         149.908
0.52                   -0.236539         -131.04          -63.365        -63.7829         -63.3637        -63.5764      -0.00902584         149.841
0.521                   -0.24382        -131.543         -63.2154        -65.9739         -63.2155        -65.7653      -0.00910467         149.774
0.522                  -0.251488         -132.05         -63.0612        -68.2228         -63.0628        -68.0144      -0.00918435         149.707
0.523                  -0.259567        -132.561          -62.902        -70.5312         -62.9052        -70.3254      -0.00926492         149.641
0.524                  -0.268085        -133.076         -62.7375           -72.9         -62.7421        -72.6998      -0.00934639         149.573
0.525                   -0.27707        -133.595         -62.5672        -75.3302         -62.5733        -75.1384       -0.0094288         149.506
0.526                  -0.286555        -134.118         -62.3908        -77.8221         -62.3981        -77.6419      -0.00951216         149.439
0.527                  -0.296573        -134.645         -62.2077        -80.3755          -62.216          -80.21      -0.00959652         149.372
0.528                   -0.30716        -135.177         -62.0175        -82.9897         -62.0265         -82.842      -0.00968192         149.304
0.529                  -0.318357        -135.712         -61.8199        -85.6633         -61.8291        -85.5361      -0.00976839         149.237
0.53                   -0.330204        -136.252         -61.6144        -88.3941         -61.6233        -88.2899      -0.00985598         149.169
0.531                  -0.342748        -136.796         -61.4008        -91.1791         -61.4087        -91.0998      -0.00994474         149.102
0.532                  -0.356035        -137.343         -61.1789        -94.0147         -61.1851        -93.9613       -0.0100347         149.034
0.533                  -0.370118        -137.895         -60.9486        -96.8964         -60.9524        -96.8692        -0.010126         148.966
0.534                  -0.385051        -138.451         -60.7101        -99.8192         -60.7106        -99.8174       -0.0102187         148.898
0.535                  -0.400891         -139.01         -60.4635        -102.778           -60.46        -102.799       -0.0103128          148.83
0.536                  -0.417699        -139.573         -60.2094        -105.765         -60.2012        -105.808       -0.0104084         148.762
0.537                  -0.435538        -140.139         -59.9484        -108.777          -59.935        -108.836       -0.0105056         148.693
0.538                  -0.454473        -140.708         -59.6816        -111.807         -59.6624        -111.877       -0.0106045         148.625
0.539                  -0.474573         -141.28         -59.4099        -114.849         -59.3848        -114.926       -0.0107053         148.556
0.54                   -0.495904        -141.854         -59.1347        -117.899         -59.1036        -117.977       -0.0108079         148.488
0.541                  -0.518535         -142.43         -58.8574        -120.954         -58.8204        -121.026       -0.0109125         148.419
0.542                  -0.542531        -143.006         -58.5797        -124.009         -58.5371        -124.072       -0.0110192          148.35
0.543                  -0.567956        -143.584         -58.3031        -127.064         -58.2555        -127.112        -0.011128         148.281
0.544                  -0.594864        -144.161         -58.0292        -130.117         -57.9772        -130.147        -0.011239         148.212
0.545                  -0.623304        -144.736         -57.7596        -133.168          -57.704        -133.177       -0.0113521         148.143
0.546                  -0.653311         -145.31         -57.4959        -136.218         -57.4374        -136.205       -0.0114674         148.074
0.547                  -0.684902         -145.88         -57.2396        -139.269          -57.179        -139.232       -0.0115848         148.005
0.548                  -0.718074        -146.445         -56.9917         -142.32         -56.9299         -142.26       -0.0117041         147.935
0.549                  -0.752799        -147.004         -56.7535        -145.374         -56.6913        -145.293       -0.0118252         147.866
0.55                   -0.789013        -147.555         -56.5259        -148.432         -56.4639        -148.331       -0.0119479         147.796
0.551                  -0.826618        -148.098         -56.3097        -151.495         -56.2486        -151.377        -0.012072         147.726
0.552                   -0.86547        -148.629         -56.1055        -154.564         -56.0457         -154.43       -0.0121971         147.656
0.553                  -0.905376        -149.149         -55.9137        -157.638         -55.8557        -157.493       -0.0123231         147.586
0.554                  -0.946094        -149.654         -55.7345        -160.717         -55.6787        -160.563       -0.0124498         147.516
0.555                  -0.987325        -150.145         -55.5682        -163.799         -55.5148        -163.639       -0.0125768         147.446
0.556                   -1.02872         -150.62         -55.4146        -166.884         -55.3638        -166.721       -0.0127041         147.376
0.557                   -1.06988        -151.079         -55.2736        -169.969         -55.2256        -169.804       -0.0128316         147.305
0.558                   -1.11037         -151.52          -55.145         -173.05         -55.0998        -172.887       -0.0129591         147.235
0.559                   -1.14973        -151.946         -55.0283        -176.126         -54.9859        -175.966       -0.0130868         147.164
0.56                    -1.18749        -152.355         -54.9231        -179.193         -54.8836        -179.038       -0.0132146         147.093
0.561                    -1.2232        -152.751          -54.829         177.752         -54.7921         177.902       -0.0133426         147.023
0.562                   -1.25641        -153.134         -54.7451         174.713          -54.711         174.856       -0.0134708         146.952
0.563                   -1.28678        -153.509          -54.671         171.692         -54.6394         171.827       -0.0135996          146.88
0.564                     -1.314        -153.877         -54.6058         168.693         -54.5767          168.82       -0.0137288         146.809
0.565                   -1.33787        -154.243         -54.5488         165.718         -54.5222         165.837       -0.0138588         146.738
0.566                    -1.3583         -154.61         -54.4994          162.77          -54.475         162.881       -0.0139895         146.666
0.567                   -1.37528        -154.981         -54.4567         159.851         -54.4344         159.953       -0.0141211         146.595
0.568                   -1.38893        -155.361         -54.4199         156.964         -54.3996         157.057       -0.0142538         146.523
0.569                   -1.39945        -155.753         -54.3883         154.108         -54.3699         154.194       -0.0143877         146.451
0.57                    -1.40711         -156.16         -54.3613         151.287         -54.3446         151.365       -0.0145227         146.379
0.571                   -1.41225        -156.584         -54.3379           148.5         -54.3229         148.571       -0.0146591         146.306
0.572                   -1.41525        -157.028         -54.3177         145.748         -54.3041         145.812        -0.014797         146.234
0.573                   -1.41651        -157.493         -54.2999         143.032         -54.2877         143.089       -0.0149363         146.162
0.574                   -1.41644         -157.98         -54.2838         140.351          -54.273         140.402       -0.0150772         146.089
0.575                   -1.41545         -158.49         -54.2691         137.705         -54.2593         137.751       -0.0152197         146.016
0.576                   -1.41392        -159.023          -54.255         135.094         -54.2463         135.135       -0.0153639         145.943
0.577                   -1.41221        -159.579          -54.241         132.517         -54.2334         132.553       -0.0155098          145.87
0.578                   -1.41065        -160.157         -54.2268         129.973         -54.2201         130.004       -0.0156575         145.797
0.579                   -1.40953        -160.758         -54.2119         127.461          -54.206         127.488       -0.0158071         145.723
0.58                    -1.40913         -161.38         -54.1959          124.98         -54.1907         125.003       -0.0159585          145.65
0.581                   -1.40966        -162.022         -54.1784         122.528         -54.1738         122.549       -0.0161119         145.576
0.582                   -1.41134        -162.685         -54.1592         120.105         -54.1552         120.123       -0.0162672         145.502
0.583                   -1.41433        -163.366         -54.1378         117.709         -54.1344         117.724       -0.0164245         145.428
0.584                    -1.4188        -164.066         -54.1142         115.338         -54.1112         115.351       -0.0165839         145.354
0.585                   -1.42487        -164.783          -54.088         112.991         -54.0854         113.002       -0.0167454         145.279
0.586                   -1.43266        -165.516          -54.059         110.667         -54.0568         110.676        -0.016909         145.205
0.587                   -1.44228        -166.266          -54.027         108.363         -54.0252         108.371       -0.0170747          145.13
0.588                   -1.45381         -167.03          -53.992         106.079         -53.9904         106.086       -0.0172427         145.055
0.589                   -1.46734        -167.809         -53.9537         103.812         -53.9524         103.818       -0.0174129          144.98
0.59                    -1.48296        -168.602         -53.9121         101.562          -53.911         101.566       -0.0175853         144.905
0.591                   -1.50073        -169.408          -53.867         99.3259         -53.8661         99.3295       -0.0177601          144.83
0.592                   -1.52074        -170.227         -53.8184         97.1028         -53.8176         97.1056       -0.0179373         144.754
0.593                   -1.54306        -171.059         -53.7662         94.8908         -53.7656         94.8931       -0.0181168         144.679
0.594                   -1.56776        -171.902         -53.7104         92.6885         -53.7099         92.6903       -0.0182988         144.603
0.595                   -1.59494        -172.757          -53.651         90.4943         -53.6505         90.4957       -0.0184833         144.527
0.596                   -1.62466        -173.623         -53.5878         88.3065         -53.5875         88.3076       -0.0186703          144.45
0.597                   -1.65701          -174.5         -53.5211         86.1237         -53.5208         86.1245       -0.0188599         144.374
0.598                    -1.6921        -175.387         -53.4506         83.9442         -53.4504         83.9447       -0.0190521         144.297
0.599                   -1.73001        -176.283         -53.3766         81.7665         -53.3764         81.7669        -0.019247          144.22
0.6                     -1.77085        -177.189          -53.299         79.5891         -53.2988         79.5894       -0.0194446         144.143
0.601                   -1.81472        -178.103         -53.2178         77.4104         -53.2177         77.4106       -0.0196449         144.066
0.602                   -1.86175        -179.026         -53.1333         75.2291         -53.1332         75.2292       -0.0198481         143.989
0.603                   -1.91206        -179.957         -53.0453         73.0436         -53.0452         73.0437       -0.0200541         143.911
0.604                   -1.96576         179.106         -52.9541         70.8525          -52.954         70.8525        -0.020263         143.834
0.605                     -2.023         178.162         -52.8597         68.6543         -52.8596         68.6543       -0.0204748         143.756
0.606                    -2.0839         177.213         -52.7622         66.4478         -52.7622         66.4478       -0.0206897         143.677
0.607                   -2.14862         176.259         -52.6619         64.2315         -52.6618         64.2315       -0.0209076         143.599
0.608                    -2.2173         175.301         -52.5588         62.0042         -52.5587         62.0042       -0.0211286          143.52
0.609                   -2.29008         174.342          -52.453         59.7647          -52.453         59.7646       -0.0213527         143.442
0.61                    -2.36712         173.381         -52.3449         57.5116         -52.3448         57.5116       -0.0215801         143.363
0.611                   -2.44855          172.42         -52.2344          55.244         -52.2344         55.2439       -0.0218107         143.283
0.612                   -2.53453         171.461          -52.122         52.9607         -52.1219         52.9606       -0.0220446         143.204
0.613                   -2.62519         170.505         -52.0076         50.6608         -52.0076         50.6607       -0.0222819         143.124
0.614                   -2.72065         169.555         -51.8917         48.3433         -51.8916         48.3432       -0.0225225         143.044
0.615                   -2.82105         168.613         -51.7744         46.0075         -51.7743         46.0074       -0.0227666         142.964
0.616                   -2.92647         167.681         -51.6559         43.6527         -51.6558         43.6526       -0.0230142         142.884
0.617                   -3.03699         166.761         -51.5366         41.2783         -51.5365         41.2782       -0.0232654         142.803
0.618                   -3.15267         165.856         -51.4166         38.8839         -51.4166         38.8837       -0.0235201         142.723
0.619                   -3.27352         164.969         -51.2963          36.469         -51.2963         36.4689       -0.0237785         142.641
0.62                    -3.39952         164.104          -51.176         34.0337         -51.1759         34.0336       -0.0240406          142.56
0.621                   -3.53061         163.264         -51.0558         31.5778         -51.0558         31.5777       -0.0243064         142.479
0.622                   -3.66665         162.452         -50.9362         29.1015         -50.9362         29.1014       -0.0245759         142.397
0.623                   -3.80746         161.672         -50.8174         26.6052         -50.8174         26.6051       -0.0248493         142.315
0.624                   -3.95278         160.929         -50.6997         24.0892         -50.6997         24.0892       -0.0251265         142.233
0.625                   -4.10227         160.225         -50.5833         21.5544         -50.5834         21.5545       -0.0254076          142.15
0.626                    -4.2555         159.566         -50.4686         19.0016         -50.4687         19.0017       -0.0256927         142.067
0.627                   -4.41195         158.954         -50.3558         16.4317         -50.3559         16.4318       -0.0259817         141.984
0.628                   -4.57098         158.394         -50.2451          13.846         -50.2452         13.8462       -0.0262747         141.901
0.629                   -4.73186         157.888         -50.1368         11.2458         -50.1369         11.2461       -0.0265718         141.818
0.63                    -4.89374         157.441          -50.031         8.63275         -50.0312          8.6331        -0.026873         141.734
0.631                   -5.05568         157.053         -49.9281         6.00836         -49.9282          6.0088       -0.0271784          141.65
0.632                   -5.21663         156.728          -49.828         3.37446         -49.8281         3.37497        -0.027488         141.565
0.633                   -5.37544         156.466          -49.731        0.732921         -49.7311        0.733521       -0.0278018         141.481
0.634                   -5.53092         156.266         -49.6371        -1.91429         -49.6373        -1.91361       -0.0281199         141.396
0.635                   -5.68182         156.127         -49.5464        -4.56516         -49.5466         -4.5644       -0.0284424         141.311
0.636                   -5.82686         156.047          -49.459        -7.21763         -49.4592        -7.21681       -0.0287694         141.225
0.637                    -5.9648         156.021         -49.3748        -9.86966          -49.375        -9.86877       -0.0291008         141.139
0.638                   -6.09446         156.045         -49.2938        -12.5192          -49.294        -12.5183       -0.0294369         141.053
0.639                   -6.21475         156.111          -49.216        -15.1643         -49.2161        -15.1633       -0.0297776         140.967
0.64                    -6.32471         156.212         -49.1412         -17.803         -49.1413         -17.802       -0.0301231          140.88
0.641                   -6.42358         156.338         -49.0693        -20.4335         -49.0694        -20.4324       -0.0304734         140.793
0.642                    -6.5108          156.48         -49.0002         -23.054         -49.0003         -23.053       -0.0308287         140.706
0.643                   -6.58604         156.628         -48.9336        -25.6631         -48.9337        -25.6621       -0.0311891         140.618
0.644                   -6.64921         156.771         -48.8694        -28.2593         -48.8695        -28.2582       -0.0315547          140.53
0.645                   -6.70049         156.897         -48.8074        -30.8413         -48.8075        -30.8403       -0.0319256         140.442
0.646                   -6.74026         156.998         -48.7473         -33.408         -48.7474         -33.407        -0.032302         140.353
0.647                   -6.76913         157.064         -48.6888        -35.9585         -48.6889        -35.9576       -0.0326839         140.264
0.648                   -6.78791         157.086         -48.6318        -38.4922         -48.6319        -38.4913       -0.0330716         140.175
0.649                   -6.79753         157.057         -48.5759        -41.0084          -48.576        -41.0076       -0.0334652         140.085
0.65                    -6.79905         156.969          -48.521        -43.5068          -48.521        -43.5061       -0.0338648         139.995
0.651                   -6.79362         156.818         -48.4666        -45.9872         -48.4666        -45.9866       -0.0342707         139.904
0.652                    -6.7824           156.6         -48.4126        -48.4496         -48.4126        -48.4491       -0.0346829         139.814
0.653                   -6.76658         156.312         -48.3587        -50.8942         -48.3587        -50.8938       -0.0351017         139.723
0.654                   -6.74735         155.951         -48.3047        -53.3212         -48.3047        -53.3209       -0.0355272         139.631
0.655                   -6.72582         155.517         -48.2503        -55.7312         -48.2503        -55.7309       -0.0359597         139.539
0.656                   -6.70308          155.01         -48.1952        -58.1246         -48.1953        -58.1244       -0.0363992         139.447
0.657                   -6.68015         154.429         -48.1394        -60.5023         -48.1394        -60.5022       -0.0368461         139.354
0.658                   -6.65798         153.776         -48.0825        -62.8649         -48.0826        -62.8649       -0.0373005         139.261
0.659                   -6.63745         153.052         -48.0245        -65.2136         -48.0245        -65.2136       -0.0377626         139.167
0.66                    -6.61938         152.259          -47.965        -67.5491         -47.9651        -67.5492       -0.0382326         139.073
0.661                    -6.6045         151.398         -47.9041        -69.8728         -47.9041        -69.8729       -0.0387107         138.979
0.662                   -6.59349         150.472         -47.8415        -72.1856         -47.8415        -72.1858       -0.0391972         138.884
0.663                     -6.587         149.482         -47.7771        -74.4889         -47.7771         -74.489       -0.0396923         138.789
0.664                   -6.58559         148.431         -47.7108        -76.7838         -47.7108         -76.784       -0.0401962         138.693
0.665                   -6.58981         147.321         -47.6426        -79.0717         -47.6426        -79.0719       -0.0407091         138.597
0.666                   -6.60016         146.153         -47.5723        -81.3538         -47.5724         -81.354       -0.0412313         138.501
0.667                   -6.61713         144.931            -47.5        -83.6316         -47.5001        -83.6318       -0.0417631         138.404
0.668                   -6.64116         143.654         -47.4256        -85.9064         -47.4257        -85.9065       -0.0423046         138.306
0.669                   -6.67272         142.326         -47.3491        -88.1795         -47.3492        -88.1796       -0.0428561         138.208
0.67                    -6.71225         140.948         -47.2705        -90.4523         -47.2705        -90.4523       -0.0434179          138.11
0.671                   -6.76018         139.521         -47.1898        -92.7261         -47.1899         -92.726       -0.0439902         138.011
0.672                   -6.81697         138.047         -47.1071        -95.0021         -47.1072        -95.0021       -0.0445734         137.912
0.673                   -6.88308         136.527         -47.0225        -97.2818         -47.0225        -97.2817       -0.0451677         137.812
0.674                   -6.95898         134.963         -46.9359        -99.5664         -46.9359        -99.5662       -0.0457734         137.711
0.675                   -7.04519         133.356         -46.8475        -101.857         -46.8475        -101.857       -0.0463908          137.61
0.676                   -7.14224         131.707         -46.7574        -104.155         -46.7574        -104.154       -0.0470201         137.509
0.677                   -7.25068         130.018         -46.6658        -106.461         -46.6657         -106.46       -0.0476617         137.407
0.678                   -7.37113         128.288         -46.5727        -108.776         -46.5726        -108.776        -0.048316         137.304
0.679                   -7.50423         126.521         -46.4783        -111.101         -46.4782        -111.101       -0.0489831         137.201
0.68                     -7.6507         124.717         -46.3828        -113.438         -46.3827        -113.438       -0.0496635         137.098
0.681                   -7.81128         122.877         -46.2863        -115.786         -46.2862        -115.786       -0.0503575         136.994
0.682                   -7.98681         121.003         -46.1891        -118.147          -46.189        -118.147       -0.0510654         136.889
0.683                    -8.1782         119.095         -46.0913        -120.521         -46.0912        -120.521       -0.0517875         136.783
0.684                   -8.38643         117.157         -45.9931        -122.909          -45.993        -122.908       -0.0525243         136.677
0.685                   -8.61259          115.19         -45.8949         -125.31         -45.8947        -125.309       -0.0532761         136.571
0.686                   -8.85788         113.195         -45.7967        -127.725         -45.7965        -127.725       -0.0540432         136.464
0.687                   -9.12362         111.175         -45.6988        -130.154         -45.6985        -130.154       -0.0548261         136.356
0.688                   -9.41129         109.132         -45.6014        -132.597         -45.6012        -132.597       -0.0556251         136.247
0.689                   -9.72252         107.071         -45.5048        -135.054         -45.5046        -135.054       -0.0564406         136.138
0.69                    -10.0592         104.993         -45.4092        -137.524         -45.4089        -137.524        -0.057273         136.028
0.691                   -10.4233         102.903         -45.3148        -140.006         -45.3145        -140.007       -0.0581227         135.918
0.692                   -10.8174         100.807         -45.2219        -142.501         -45.2216        -142.501       -0.0589902         135.807
0.693                    -11.244         98.7077         -45.1305        -145.007         -45.1302        -145.007       -0.0598758         135.695
0.694                   -11.7065         96.6137         -45.0411        -147.522         -45.0408        -147.523         -0.06078         135.583
0.695                   -12.2084         94.5324         -44.9536        -150.047         -44.9533        -150.048       -0.0617032         135.469
0.696                   -12.7542         92.4735         -44.8684         -152.58         -44.8681         -152.58        -0.062646         135.355