! TOUCHSTONE file generated by CST MICROWAVE STUDIO
! Date and time: Sat Nov 14 20:43:46 2020
! Project name: Scenario_1_Planar_Body_Tissue_Out_of_Line_v2.cst
! Parameters = {dy1=-311.4; L_HA=400; Ltissue=700; MT=2.54; Rad_Dielectric=30; Rad_Lower=7.3; Rad_Upper=30; Wtissue=700; a_HA=580; a_WG=246; b_HA=500; b_WG=121; c_HA=0; c_WG=187; d_feed=85; dx1=173; h_feed=15; h_lower=18; h_upper=40; hfat=3; hgap=25; hmuscle=50; hskin=1.5}
! Header version: 2018
! Port assignment regex: !\s*Touchstone port\s*([0-9]+)\s*=\s*(CST MWS port|CST DS port)\s*([0-9]+|Zmin|Zmax)\s*\(\"(.*)\"\)(\s*mode\s*([0-9]+))?.*
! Touchstone port assignment:
! Touchstone port 1 = CST MWS port 1 ("")
! Touchstone port 2 = CST MWS port 2 ("")
# GHz S DB R 50
0.5                   -0.0696925        -121.718         -66.8689         117.308         -66.8673         117.304      -0.00697394         151.153
0.501                 -0.0683363        -122.162         -66.6136         117.068         -66.6137         117.069      -0.00701608         151.087
0.502                 -0.0671525        -122.609          -66.358           116.8         -66.3599         116.806       -0.0070597         151.022
0.503                 -0.0661499        -123.061         -66.1023         116.505         -66.1057         116.516       -0.0071048         150.957
0.504                 -0.0653382        -123.516         -65.8462         116.183         -65.8511         116.199      -0.00715139         150.891
0.505                 -0.0647272        -123.976           -65.59         115.835         -65.5962         115.855      -0.00719946         150.826
0.506                 -0.0643277         -124.44         -65.3334          115.46          -65.341         115.484      -0.00724902          150.76
0.507                  -0.064151        -124.908         -65.0765          115.06         -65.0853         115.088      -0.00730007         150.694
0.508                 -0.0642091        -125.381         -64.8192         114.633         -64.8291         114.665      -0.00735261         150.629
0.509                 -0.0645148        -125.858         -64.5616         114.182         -64.5725         114.217      -0.00740664         150.563
0.51                  -0.0650816         -126.34         -64.3035         113.705         -64.3154         113.743      -0.00746217         150.497
0.511                 -0.0659242        -126.827          -64.045         113.203         -64.0578         113.244      -0.00751919         150.431
0.512                 -0.0670579        -127.318          -63.786         112.676         -63.7996          112.72      -0.00757771         150.365
0.513                 -0.0684992        -127.814         -63.5264         112.124         -63.5408         112.171      -0.00763774         150.299
0.514                 -0.0702656        -128.315         -63.2663         111.548         -63.2814         111.597      -0.00769926         150.232
0.515                 -0.0723759        -128.821         -63.0056         110.947         -63.0212         110.998       -0.0077623         150.166
0.516                 -0.0748501        -129.333         -62.7441         110.321         -62.7604         110.374      -0.00782684           150.1
0.517                 -0.0777096        -129.849          -62.482          109.67         -62.4987         109.726       -0.0078929         150.033
0.518                 -0.0809772        -130.371         -62.2191         108.995         -62.2363         109.052      -0.00796048         149.967
0.519                 -0.0846775        -130.898         -61.9555         108.296          -61.973         108.354      -0.00802957           149.9
0.52                  -0.0888365        -131.431         -61.6909         107.571         -61.7088          107.63      -0.00810019         149.833
0.521                 -0.0934825         -131.97         -61.4255         106.821         -61.4436         106.882      -0.00817234         149.766
0.522                 -0.0986454        -132.515         -61.1592         106.046         -61.1774         106.108      -0.00824602           149.7
0.523                  -0.104358        -133.065         -60.8918         105.246         -60.9102         105.308      -0.00832124         149.633
0.524                  -0.110654        -133.621         -60.6234         104.421         -60.6419         104.483      -0.00839799         149.565
0.525                  -0.117571        -134.184          -60.354         103.569         -60.3725         103.632       -0.0084763         149.498
0.526                  -0.125148        -134.753         -60.0834         102.691         -60.1019         102.754      -0.00855615         149.431
0.527                   -0.13343        -135.328         -59.8116         101.788         -59.8301         101.851      -0.00863757         149.364
0.528                  -0.142462         -135.91         -59.5387         100.857         -59.5571          100.92      -0.00872055         149.296
0.529                  -0.152293        -136.498         -59.2644          99.899         -59.2827         99.9615      -0.00880509         149.229
0.53                   -0.162976        -137.093         -58.9889         98.9136          -59.007         98.9757      -0.00889121         149.161
0.531                   -0.17457        -137.694         -58.7121         97.9002         -58.7299         97.9617      -0.00897892         149.094
0.532                  -0.187136        -138.303         -58.4338         96.8582         -58.4514          96.919      -0.00906821         149.026
0.533                   -0.20074        -138.919         -58.1542         95.7872         -58.1715         95.8472       -0.0091591         148.958
0.534                  -0.215454        -139.541         -57.8732         94.6866         -57.8901         94.7457      -0.00925159          148.89
0.535                  -0.231355        -140.171         -57.5906         93.5558         -57.6072         93.6137       -0.0093457         148.822
0.536                  -0.248525        -140.808         -57.3066         92.3941         -57.3228         92.4508      -0.00944142         148.754
0.537                  -0.267053        -141.452         -57.0211         91.2007         -57.0368         91.2561      -0.00953878         148.686
0.538                  -0.287036        -142.103         -56.7341          89.975         -56.7493          90.029      -0.00963777         148.617
0.539                  -0.308576        -142.761         -56.4456         88.7162         -56.4602         88.7687      -0.00973842         148.549
0.54                   -0.331783        -143.426         -56.1555         87.4234         -56.1696         87.4742      -0.00984072          148.48
0.541                  -0.356777        -144.099          -55.864         86.0957         -55.8774         86.1448      -0.00994468         148.412
0.542                  -0.383683        -144.777         -55.5709         84.7322         -55.5838         84.7794       -0.0100503         148.343
0.543                  -0.412638        -145.463         -55.2763         83.3319         -55.2886         83.3772       -0.0101577         148.274
0.544                  -0.443785        -146.155         -54.9803         81.8938         -54.9919          81.937       -0.0102667         148.205
0.545                   -0.47728        -146.852         -54.6829         80.4167         -54.6938         80.4579       -0.0103775         148.136
0.546                  -0.513284        -147.555         -54.3842         78.8997         -54.3944         78.9385       -0.0104899         148.067
0.547                  -0.551971        -148.263         -54.0842         77.3414         -54.0937         77.3779       -0.0106042         147.998
0.548                  -0.593521        -148.975         -53.7831         75.7407         -53.7917         75.7748       -0.0107201         147.929
0.549                  -0.638126         -149.69         -53.4808         74.0964         -53.4887         74.1279       -0.0108379         147.859
0.55                   -0.685981        -150.407         -53.1776          72.407         -53.1848         72.4359       -0.0109574          147.79
0.551                  -0.737291        -151.125         -52.8736         70.6714           -52.88         70.6975       -0.0110787          147.72
0.552                  -0.792261        -151.844          -52.569         68.8882         -52.5745         68.9113       -0.0112019          147.65
0.553                  -0.851102         -152.56         -52.2639         67.0559         -52.2686         67.0761       -0.0113268         147.581
0.554                  -0.914016        -153.272         -51.9586         65.1734         -51.9625         65.1905       -0.0114536         147.511
0.555                  -0.981205        -153.978         -51.6533         63.2392         -51.6564         63.2531       -0.0115823          147.44
0.556                   -1.05285        -154.675         -51.3483         61.2521         -51.3506         61.2626       -0.0117128          147.37
0.557                   -1.12912        -155.361         -51.0438         59.2107         -51.0453         59.2178       -0.0118452           147.3
0.558                   -1.21015        -156.032         -50.7403          57.114          -50.741         57.1175       -0.0119795         147.229
0.559                   -1.29603        -156.685         -50.4381         54.9607         -50.4381         54.9606       -0.0121158         147.159
0.56                    -1.38681        -157.315         -50.1376         52.7501         -50.1368         52.7462        -0.012254         147.088
0.561                   -1.48245        -157.918         -49.8392         50.4811         -49.8377         50.4734       -0.0123941         147.017
0.562                   -1.58284        -158.489         -49.5435         48.1533         -49.5413         48.1416       -0.0125362         146.947
0.563                   -1.68778        -159.023         -49.2508         45.7663          -49.248         45.7506       -0.0126803         146.875
0.564                   -1.79692        -159.514         -48.9619         43.3199         -48.9585         43.3001       -0.0128264         146.804
0.565                   -1.90978        -159.958         -48.6773         40.8144         -48.6733         40.7905       -0.0129746         146.733
0.566                   -2.02572        -160.347         -48.3974         38.2503          -48.393         38.2222       -0.0131247         146.662
0.567                   -2.14392        -160.678         -48.1231         35.6285         -48.1182         35.5963       -0.0132769          146.59
0.568                   -2.26338        -160.945         -47.8549         32.9504         -47.8495         32.9142       -0.0134312         146.518
0.569                   -2.38291        -161.143         -47.5934         30.2179         -47.5877         30.1776       -0.0135875         146.447
0.57                    -2.50111         -161.27         -47.3394         27.4333         -47.3334         27.3891       -0.0137459         146.375
0.571                   -2.61646        -161.324         -47.0934         24.5994         -47.0872         24.5515       -0.0139065         146.303
0.572                   -2.72729        -161.304          -46.856         21.7196         -46.8496         21.6681       -0.0140691          146.23
0.573                   -2.83184        -161.213         -46.6278         18.7977         -46.6214         18.7428       -0.0142338         146.158
0.574                   -2.92837        -161.055         -46.4093         15.8381         -46.4029         15.7801       -0.0144006         146.086
0.575                   -3.01518        -160.835          -46.201         12.8455         -46.1946         12.7848       -0.0145696         146.013
0.576                   -3.09075        -160.564         -46.0033         9.82512          -45.997         9.76202       -0.0147406          145.94
0.577                   -3.15378         -160.25         -45.8164         6.78252         -45.8103         6.71741       -0.0149138         145.867
0.578                   -3.20328        -159.907         -45.6406         3.72344         -45.6347         3.65675       -0.0150891         145.794
0.579                   -3.23863        -159.548          -45.476         0.65383         -45.4704           0.586       -0.0152665         145.721
0.58                    -3.25961        -159.187         -45.3227         -2.4203         -45.3173         -2.4888        -0.015446         145.648
0.581                   -3.26642        -158.837         -45.1805        -5.49296         -45.1755        -5.56167       -0.0156276         145.574
0.582                    -3.2596        -158.512         -45.0493        -8.55831         -45.0447        -8.62674       -0.0158112         145.501
0.583                   -3.24005        -158.223         -44.9289        -11.6107         -44.9245        -11.6784        -0.015997         145.427
0.584                   -3.20891         -157.98         -44.8188        -14.6448         -44.8148        -14.7113       -0.0161848         145.353
0.585                   -3.16753        -157.792         -44.7186        -17.6556          -44.715        -17.7204       -0.0163746         145.279
0.586                   -3.11735        -157.665         -44.6278        -20.6386         -44.6247        -20.7014       -0.0165665         145.204
0.587                   -3.05986        -157.602          -44.546        -23.5898         -44.5432        -23.6502       -0.0167604          145.13
0.588                   -2.99653        -157.607         -44.4725        -26.5056           -44.47        -26.5632       -0.0169562         145.055
0.589                   -2.92874         -157.68         -44.4066         -29.383         -44.4045        -29.4375       -0.0171541         144.981
0.59                    -2.85779         -157.82         -44.3478        -32.2195         -44.3459        -32.2706       -0.0173538         144.906
0.591                   -2.78483        -158.025         -44.2953         -35.013         -44.2938        -35.0606       -0.0175556         144.831
0.592                   -2.71089        -158.295         -44.2486        -37.7622         -44.2473         -37.806       -0.0177592         144.755
0.593                   -2.63684        -158.624          -44.207        -40.4658          -44.206        -40.5057       -0.0179647          144.68
0.594                   -2.56344        -159.011         -44.1699        -43.1234          -44.169        -43.1592       -0.0181722         144.604
0.595                   -2.49129        -159.451         -44.1366        -45.7346          -44.136        -45.7664       -0.0183815         144.529
0.596                    -2.4209        -159.941         -44.1067        -48.2995         -44.1062        -48.3272       -0.0185927         144.453
0.597                   -2.35267        -160.477         -44.0795        -50.8186         -44.0792        -50.8421       -0.0188058         144.377
0.598                   -2.28689        -161.056         -44.0546        -53.2925         -44.0544        -53.3118       -0.0190208           144.3
0.599                   -2.22381        -161.675         -44.0316        -55.7221         -44.0314        -55.7373       -0.0192376         144.224
0.6                     -2.16358         -162.33         -44.0098        -58.1083         -44.0097        -58.1195       -0.0194563         144.147
0.601                   -2.10632        -163.019         -43.9891        -60.4525         -43.9891        -60.4597       -0.0196769          144.07
0.602                    -2.0521        -163.739          -43.969        -62.7559          -43.969        -62.7593       -0.0198995         143.993
0.603                   -2.00096        -164.487         -43.9491          -65.02         -43.9491        -65.0197       -0.0201239         143.916
0.604                   -1.95288        -165.262         -43.9292        -67.2463         -43.9292        -67.2423       -0.0203504         143.839
0.605                   -1.90786        -166.062         -43.9091        -69.4363         -43.9091        -69.4288       -0.0205788         143.761
0.606                   -1.86587        -166.885         -43.8884        -71.5915         -43.8884        -71.5807       -0.0208093         143.683
0.607                   -1.82686        -167.729          -43.867        -73.7135         -43.8669        -73.6995       -0.0210418         143.605
0.608                   -1.79078        -168.593         -43.8446        -75.8039         -43.8445        -75.7869       -0.0212764         143.527
0.609                   -1.75756        -169.477         -43.8212        -77.8644         -43.8211        -77.8445       -0.0215131         143.449
0.61                    -1.72714        -170.378         -43.7965        -79.8963         -43.7964        -79.8738        -0.021752          143.37
0.611                   -1.69947        -171.296         -43.7705        -81.9014         -43.7703        -81.8764       -0.0219932         143.291
0.612                   -1.67447         -172.23         -43.7431         -83.881         -43.7428        -83.8537       -0.0222366         143.212
0.613                   -1.65208         -173.18         -43.7141        -85.8367         -43.7137        -85.8072       -0.0224824         143.133
0.614                   -1.63225        -174.146         -43.6834        -87.7699          -43.683        -87.7384       -0.0227306         143.053
0.615                   -1.61491        -175.125         -43.6511        -89.6819         -43.6507        -89.6486       -0.0229812         142.974
0.616                   -1.60002         -176.12         -43.6171        -91.5742         -43.6166        -91.5393       -0.0232344         142.894
0.617                   -1.58753        -177.128         -43.5813         -93.448         -43.5807        -93.4116       -0.0234901         142.814
0.618                   -1.57738         -178.15         -43.5438        -95.3047         -43.5431         -95.267       -0.0237485         142.733
0.619                   -1.56955        -179.185         -43.5044        -97.1454         -43.5037        -97.1066       -0.0240095         142.653
0.62                      -1.564         179.766         -43.4632        -98.9713         -43.4625        -98.9316       -0.0242733         142.572
0.621                    -1.5607         178.703         -43.4202        -100.784         -43.4194        -100.743         -0.02454         142.491
0.622                   -1.55962         177.627         -43.3754        -102.584         -43.3746        -102.542       -0.0248095          142.41
0.623                   -1.56075         176.538         -43.3289        -104.372          -43.328         -104.33        -0.025082         142.328
0.624                   -1.56407         175.435         -43.2805         -106.15         -43.2796        -106.108       -0.0253576         142.247
0.625                   -1.56957         174.318         -43.2304        -107.919         -43.2294        -107.877       -0.0256362         142.165
0.626                   -1.57724         173.187         -43.1785        -109.679         -43.1775        -109.637       -0.0259181         142.083
0.627                    -1.5871         172.043          -43.125        -111.432          -43.124         -111.39       -0.0262031             142
0.628                   -1.59914         170.884         -43.0698        -113.179         -43.0688        -113.137       -0.0264915         141.917
0.629                   -1.61337         169.711          -43.013         -114.92         -43.0119        -114.878       -0.0267833         141.834
0.63                    -1.62982         168.524         -42.9547        -116.655         -42.9535        -116.614       -0.0270786         141.751
0.631                    -1.6485         167.322         -42.8948        -118.387         -42.8936        -118.347       -0.0273773         141.668
0.632                   -1.66944         166.104         -42.8334        -120.116         -42.8322        -120.076       -0.0276797         141.584
0.633                   -1.69267         164.871         -42.7706        -121.842         -42.7694        -121.803       -0.0279858           141.5
0.634                   -1.71823         163.622         -42.7064        -123.567         -42.7053        -123.529       -0.0282957         141.416
0.635                   -1.74615         162.358          -42.641        -125.291         -42.6398        -125.253       -0.0286094         141.331
0.636                    -1.7765         161.077         -42.5742        -127.014          -42.573        -126.977       -0.0289271         141.246
0.637                   -1.80931         159.779         -42.5063        -128.738         -42.5051        -128.702       -0.0292488         141.161
0.638                   -1.84464         158.464         -42.4373        -130.462         -42.4361        -130.428       -0.0295745         141.076
0.639                   -1.88257         157.131         -42.3671        -132.188          -42.366        -132.155       -0.0299045          140.99
0.64                    -1.92315          155.78          -42.296        -133.917         -42.2949        -133.885       -0.0302387         140.904
0.641                   -1.96646         154.411          -42.224        -135.648         -42.2229        -135.618       -0.0305773         140.818
0.642                   -2.01259         153.024         -42.1511        -137.382           -42.15        -137.354       -0.0309203         140.731
0.643                   -2.06161         151.617         -42.0775        -139.121         -42.0764        -139.093       -0.0312679         140.644
0.644                   -2.11361          150.19         -42.0031        -140.863          -42.002        -140.837       -0.0316201         140.557
0.645                   -2.16871         148.743         -41.9282         -142.61         -41.9271        -142.586       -0.0319771         140.469
0.646                   -2.22699         147.276         -41.8526        -144.363         -41.8516         -144.34       -0.0323389         140.381
0.647                   -2.28857         145.787         -41.7767        -146.121         -41.7757          -146.1       -0.0327056         140.293
0.648                   -2.35357         144.277         -41.7003        -147.885         -41.6994        -147.866       -0.0330773         140.205
0.649                   -2.42211         142.745         -41.6237        -149.656         -41.6228        -149.638       -0.0334542         140.116
0.65                    -2.49432          141.19         -41.5468        -151.433          -41.546        -151.417       -0.0338364         140.026
0.651                   -2.57034         139.611         -41.4699        -153.218         -41.4691        -153.203       -0.0342239         139.937
0.652                   -2.65031         138.009         -41.3929         -155.01         -41.3922        -154.996       -0.0346169         139.847
0.653                   -2.73439         136.383          -41.316        -156.809         -41.3153        -156.797       -0.0350156         139.757
0.654                   -2.82273         134.731         -41.2392        -158.616         -41.2386        -158.606       -0.0354199         139.666
0.655                    -2.9155         133.054         -41.1627        -160.431         -41.1622        -160.423       -0.0358301         139.575
0.656                   -3.01287         131.351         -41.0866        -162.255         -41.0861        -162.248       -0.0362462         139.484
0.657                   -3.11503         129.621         -41.0109        -164.087         -41.0105        -164.081       -0.0366685         139.392
0.658                   -3.22218         127.863         -40.9357        -165.927         -40.9354        -165.922        -0.037097           139.3
0.659                    -3.3345         126.078         -40.8612        -167.776         -40.8609        -167.772       -0.0375319         139.207
0.66                    -3.45221         124.263         -40.7874        -169.633         -40.7872        -169.631       -0.0379734         139.114
0.661                   -3.57552         122.418         -40.7144        -171.499         -40.7143        -171.498       -0.0384215         139.021
0.662                   -3.70466         120.543         -40.6423        -173.373         -40.6423        -173.373       -0.0388764         138.927
0.663                   -3.83986         118.637         -40.5713        -175.255         -40.5713        -175.256       -0.0393383         138.833
0.664                   -3.98136         116.698         -40.5014        -177.146         -40.5015        -177.148       -0.0398074         138.738
0.665                   -4.12941         114.727         -40.4327        -179.045         -40.4329        -179.048       -0.0402837         138.643
0.666                   -4.28428          112.72         -40.3653         179.048         -40.3655         179.044       -0.0407676         138.548
0.667                   -4.44624         110.679         -40.2993         177.133         -40.2996         177.129       -0.0412591         138.452
0.668                   -4.61555         108.601         -40.2348         175.211         -40.2351         175.206       -0.0417585         138.356
0.669                    -4.7925         106.485         -40.1718         173.282         -40.1722         173.277       -0.0422658         138.259
0.67                    -4.97739          104.33         -40.1105         171.346          -40.111          171.34       -0.0427814         138.162
0.671                   -5.17053         102.134          -40.051         169.404         -40.0515         169.398       -0.0433055         138.064
0.672                   -5.37221         99.8962         -39.9932         167.455         -39.9938         167.449       -0.0438381         137.966
0.673                   -5.58276         97.6135         -39.9373         165.501         -39.9379         165.495       -0.0443796         137.867
0.674                   -5.80249         95.2843         -39.8834         163.542          -39.884         163.536       -0.0449301         137.768
0.675                   -6.03174         92.9062         -39.8315         161.579         -39.8321         161.572       -0.0454899         137.669
0.676                   -6.27083         90.4766         -39.7817         159.611         -39.7823         159.605       -0.0460592         137.568
0.677                    -6.5201         87.9925          -39.734          157.64         -39.7346         157.634       -0.0466382         137.468
0.678                   -6.77986         85.4506         -39.6884         155.666         -39.6891          155.66       -0.0472273         137.367
0.679                   -7.05046          82.847         -39.6452          153.69         -39.6458         153.684       -0.0478265         137.265
0.68                    -7.33219         80.1774         -39.6041         151.712         -39.6048         151.706       -0.0484363         137.163
0.681                   -7.62535         77.4369         -39.5654         149.733          -39.566         149.728       -0.0490568          137.06
0.682                   -7.93022           74.62          -39.529         147.753         -39.5296         147.749       -0.0496884         136.956
0.683                   -8.24702         71.7204         -39.4949         145.774         -39.4955          145.77       -0.0503313         136.853
0.684                   -8.57594         68.7309         -39.4632         143.796         -39.4637         143.793       -0.0509859         136.748
0.685                    -8.9171         65.6434         -39.4339          141.82         -39.4344         141.817       -0.0516524         136.643
0.686                   -9.27052         62.4485         -39.4069         139.846         -39.4073         139.843       -0.0523311         136.537
0.687                   -9.63608         59.1358         -39.3823         137.875         -39.3827         137.873       -0.0530224         136.431
0.688                   -10.0135         55.6936         -39.3601         135.908         -39.3603         135.906       -0.0537266         136.324
0.689                   -10.4024         52.1085         -39.3402         133.945         -39.3404         133.944       -0.0544441         136.216
0.69                    -10.8018         48.3658         -39.3226         131.987         -39.3227         131.987       -0.0551752         136.108
0.691                   -11.2107         44.4491         -39.3074         130.035         -39.3073         130.035       -0.0559203         135.999
0.692                   -11.6275         40.3408         -39.2944         128.089         -39.2942          128.09       -0.0566797          135.89
0.693                     -12.05          36.022         -39.2836         126.151         -39.2833         126.152       -0.0574539          135.78
0.694                   -12.4753         31.4733          -39.275          124.22         -39.2746         124.222       -0.0582433         135.669
0.695                   -12.8997         26.6753         -39.2685         122.297          -39.268         122.299       -0.0590483         135.557
0.696                   -13.3183         21.6105         -39.2641         120.383         -39.2635         120.386       -0.0598693         135.445