! TOUCHSTONE file generated by CST MICROWAVE STUDIO
! Date and time: Fri Dec 11 14:18:09 2020
! Project name: Scenario_1_Planar_Body_Tissue_Out_of_Line_v2.cst
! Parameters = {dy1=311.4; L_HA=400; Ltissue=700; MT=2.54; Rad_Dielectric=30; Rad_Lower=7.3; Rad_Upper=30; Wtissue=700; a_HA=580; a_WG=246; b_HA=500; b_WG=121; c_HA=0; c_WG=187; d_feed=85; dx1=520; h_feed=15; h_lower=18; h_upper=40; hfat=3; hgap=25; hmuscle=50; hskin=1.5}
! Header version: 2018
! Port assignment regex: !\s*Touchstone port\s*([0-9]+)\s*=\s*(CST MWS port|CST DS port)\s*([0-9]+|Zmin|Zmax)\s*\(\"(.*)\"\)(\s*mode\s*([0-9]+))?.*
! Touchstone port assignment:
! Touchstone port 1 = CST MWS port 1 ("")
! Touchstone port 2 = CST MWS port 2 ("")
# GHz S DB R 50
0.5                    -0.100779        -121.965         -65.1366         -84.233         -65.1359        -84.2289      -0.00737834         151.156
0.501                  -0.104543        -122.418         -64.9357        -85.3622         -64.9351        -85.3585      -0.00744688          151.09
0.502                  -0.108545        -122.874         -64.7308        -86.5027         -64.7302        -86.4993      -0.00751636         151.025
0.503                  -0.112803        -123.334         -64.5218        -87.6553         -64.5213        -87.6523      -0.00758681          150.96
0.504                  -0.117334        -123.797         -64.3087         -88.821         -64.3082        -88.8183      -0.00765824         150.894
0.505                  -0.122158        -124.264         -64.0915        -90.0007          -64.091        -89.9983      -0.00773067         150.829
0.506                  -0.127295        -124.735           -63.87        -91.1956         -63.8696        -91.1935      -0.00780413         150.763
0.507                  -0.132769        -125.209         -63.6443        -92.4067          -63.644        -92.4048      -0.00787863         150.697
0.508                  -0.138604        -125.687         -63.4144        -93.6353          -63.414        -93.6336       -0.0079542         150.632
0.509                  -0.144826        -126.169         -63.1801        -94.8825         -63.1798        -94.8811      -0.00803086         150.566
0.51                   -0.151464        -126.655         -62.9416        -96.1499         -62.9413        -96.1486      -0.00810864           150.5
0.511                  -0.158548        -127.144         -62.6987        -97.4387         -62.6985        -97.4376      -0.00818757         150.434
0.512                   -0.16611        -127.638         -62.4516        -98.7505         -62.4514        -98.7495      -0.00826766         150.368
0.513                  -0.174186        -128.135         -62.2001        -100.087         -62.1999        -100.086      -0.00834894         150.301
0.514                  -0.182813        -128.637         -61.9443        -101.449         -61.9442        -101.449      -0.00843145         150.235
0.515                  -0.192032        -129.142         -61.6843         -102.84         -61.6842         -102.84      -0.00851522         150.169
0.516                  -0.201885        -129.651         -61.4201        -104.261         -61.4201         -104.26      -0.00860027         150.102
0.517                  -0.212418        -130.164         -61.1518        -105.713         -61.1517        -105.713      -0.00868664         150.036
0.518                   -0.22368        -130.681         -60.8794        -107.199         -60.8793        -107.199      -0.00877435         149.969
0.519                  -0.235722        -131.202          -60.603        -108.722          -60.603        -108.721      -0.00886345         149.902
0.52                   -0.248598        -131.726         -60.3228        -110.282         -60.3228        -110.282      -0.00895397         149.836
0.521                  -0.262365        -132.253         -60.0389        -111.883         -60.0389        -111.882      -0.00904593         149.769
0.522                  -0.277082        -132.783         -59.7515        -113.526         -59.7516        -113.526      -0.00913937         149.702
0.523                  -0.292809        -133.317         -59.4608        -115.215         -59.4609        -115.215      -0.00923433         149.635
0.524                  -0.309609        -133.852         -59.1671        -116.951         -59.1672        -116.951      -0.00933084         149.568
0.525                  -0.327544         -134.39         -58.8706        -118.738         -58.8707        -118.737      -0.00942893         149.501
0.526                  -0.346678         -134.93         -58.5717        -120.576         -58.5718        -120.576      -0.00952862         149.433
0.527                   -0.36707         -135.47         -58.2707         -122.47         -58.2708         -122.47      -0.00962995         149.366
0.528                  -0.388779        -136.012          -57.968        -124.422         -57.9681        -124.421      -0.00973293         149.298
0.529                  -0.411856        -136.553         -57.6642        -126.433         -57.6642        -126.433      -0.00983758         149.231
0.53                   -0.436349        -137.093         -57.3596        -128.506         -57.3597        -128.506      -0.00994392         149.163
0.531                  -0.462291        -137.631         -57.0549        -130.644          -57.055        -130.643       -0.0100519         149.095
0.532                  -0.489706        -138.166         -56.7508        -132.847         -56.7508        -132.847       -0.0101616         149.028
0.533                  -0.518599        -138.698         -56.4478        -135.118         -56.4478        -135.118        -0.010273          148.96
0.534                  -0.548956        -139.224         -56.1468        -137.458         -56.1468        -137.458        -0.010386         148.892
0.535                  -0.580737        -139.744         -55.8484        -139.868         -55.8485        -139.867       -0.0105005         148.823
0.536                  -0.613876        -140.256         -55.5537        -142.347         -55.5537        -142.347       -0.0106166         148.755
0.537                  -0.648272        -140.759         -55.2633        -144.897         -55.2634        -144.896       -0.0107341         148.687
0.538                  -0.683788        -141.252         -54.9784        -147.516         -54.9783        -147.515        -0.010853         148.619
0.539                  -0.720251        -141.733         -54.6996        -150.202         -54.6996        -150.202       -0.0109731          148.55
0.54                   -0.757443        -142.201         -54.4281        -152.954         -54.4281        -152.954       -0.0110942         148.481
0.541                   -0.79511        -142.655         -54.1647        -155.768         -54.1647        -155.768       -0.0112163         148.413
0.542                  -0.832956        -143.094         -53.9104        -158.641         -53.9104        -158.641       -0.0113391         148.344
0.543                  -0.870652        -143.518         -53.6659        -161.569         -53.6659        -161.569       -0.0114625         148.275
0.544                  -0.907842        -143.927         -53.4321        -164.545         -53.4321        -164.545       -0.0115862         148.206
0.545                  -0.944152        -144.319         -53.2097        -167.565         -53.2096        -167.565       -0.0117101         148.137
0.546                  -0.979202        -144.697         -52.9992         -170.62         -52.9991         -170.62       -0.0118339         148.068
0.547                   -1.01262        -145.062         -52.8011        -173.705          -52.801        -173.705       -0.0119575         147.999
0.548                   -1.04404        -145.414         -52.6157        -176.812         -52.6157        -176.812       -0.0120806         147.929
0.549                   -1.07317        -145.755         -52.4433        -179.932         -52.4432        -179.933       -0.0122031          147.86
0.55                    -1.09972        -146.088         -52.2838         176.941         -52.2837         176.941        -0.012325          147.79
0.551                   -1.12349        -146.415         -52.1371         173.816          -52.137         173.816        -0.012446         147.721
0.552                   -1.14434         -146.74         -52.0029           170.7         -52.0029           170.7       -0.0125663         147.651
0.553                   -1.16218        -147.064         -51.8809           167.6         -51.8809           167.6       -0.0126857         147.581
0.554                   -1.17703        -147.391         -51.7706         164.523         -51.7706         164.523       -0.0128043         147.511
0.555                   -1.18895        -147.723         -51.6713         161.474         -51.6713         161.474       -0.0129223         147.441
0.556                   -1.19806        -148.062         -51.5823         158.459         -51.5823         158.459       -0.0130397         147.371
0.557                   -1.20454        -148.412         -51.5029         155.482         -51.5029         155.482       -0.0131568           147.3
0.558                   -1.20862        -148.774         -51.4323         152.547         -51.4323         152.547       -0.0132737          147.23
0.559                   -1.21053         -149.15         -51.3696         149.657         -51.3696         149.657       -0.0133906         147.159
0.56                    -1.21057        -149.541          -51.314         146.814          -51.314         146.814       -0.0135077         147.088
0.561                   -1.20899        -149.949         -51.2647          144.02         -51.2647          144.02       -0.0136253         147.017
0.562                   -1.20609        -150.373          -51.221         141.275         -51.2209         141.275       -0.0137435         146.946
0.563                   -1.20213        -150.815         -51.1819          138.58         -51.1819         138.581       -0.0138627         146.875
0.564                   -1.19738        -151.274         -51.1468         135.936         -51.1468         135.936       -0.0139829         146.804
0.565                   -1.19209        -151.752         -51.1151          133.34          -51.115          133.34       -0.0141044         146.732
0.566                   -1.18647        -152.247          -51.086         130.793          -51.086         130.793       -0.0142274         146.661
0.567                   -1.18074        -152.759         -51.0591         128.293          -51.059         128.293        -0.014352         146.589
0.568                   -1.17507        -153.288         -51.0337         125.839         -51.0336         125.839       -0.0144783         146.517
0.569                   -1.16964        -153.834         -51.0093         123.429         -51.0092         123.429       -0.0146064         146.445
0.57                    -1.16459        -154.396         -50.9856         121.062         -50.9855         121.062       -0.0147366         146.373
0.571                   -1.16004        -154.974         -50.9622         118.735         -50.9621         118.735       -0.0148687           146.3
0.572                   -1.15611        -155.567         -50.9386         116.448         -50.9385         116.448        -0.015003         146.228
0.573                    -1.1529        -156.175         -50.9147         114.197         -50.9146         114.197       -0.0151395         146.155
0.574                   -1.15048        -156.797         -50.8901         111.981         -50.8899         111.981       -0.0152782         146.083
0.575                   -1.14894        -157.432         -50.8645         109.798         -50.8644         109.798       -0.0154192          146.01
0.576                   -1.14832        -158.081         -50.8379         107.647         -50.8377         107.647       -0.0155625         145.937
0.577                    -1.1487        -158.743         -50.8099         105.525         -50.8098         105.525       -0.0157081         145.863
0.578                   -1.15011        -159.417         -50.7805          103.43         -50.7804          103.43       -0.0158561          145.79
0.579                    -1.1526        -160.103         -50.7495         101.362         -50.7494         101.362       -0.0160065         145.716
0.58                    -1.15621        -160.802         -50.7168         99.3175         -50.7167         99.3172       -0.0161594         145.643
0.581                   -1.16097        -161.511         -50.6824         97.2958         -50.6823         97.2954       -0.0163146         145.569
0.582                   -1.16692        -162.233         -50.6461         95.2951         -50.6459         95.2947       -0.0164723         145.495
0.583                   -1.17409        -162.965         -50.6078         93.3139         -50.6077         93.3135       -0.0166324         145.421
0.584                   -1.18252        -163.709         -50.5676          91.351         -50.5675         91.3505       -0.0167949         145.346
0.585                   -1.19222        -164.463         -50.5254         89.4049         -50.5253         89.4043         -0.01696         145.272
0.586                   -1.20325        -165.228         -50.4812         87.4742         -50.4811         87.4737       -0.0171275         145.197
0.587                   -1.21562        -166.003         -50.4349         85.5579         -50.4348         85.5573       -0.0172974         145.122
0.588                   -1.22938         -166.79         -50.3865         83.6546         -50.3864         83.6539       -0.0174699         145.047
0.589                   -1.24456        -167.586          -50.336         81.7632         -50.3359         81.7626       -0.0176449         144.972
0.59                     -1.2612        -168.393         -50.2834         79.8827         -50.2833          79.882       -0.0178223         144.897
0.591                   -1.27933        -169.211         -50.2287         78.0119         -50.2287         78.0113       -0.0180023         144.822
0.592                   -1.29901        -170.039          -50.172           76.15         -50.1719         76.1493       -0.0181848         144.746
0.593                   -1.32028        -170.877         -50.1132         74.2958         -50.1131         74.2952       -0.0183699          144.67
0.594                   -1.34319        -171.725         -50.0523         72.4486         -50.0523         72.4479       -0.0185575         144.594
0.595                    -1.3678        -172.584         -49.9894         70.6073         -49.9893         70.6066       -0.0187477         144.518
0.596                   -1.39415        -173.454         -49.9244          68.771         -49.9244         68.7703       -0.0189404         144.442
0.597                   -1.42232        -174.334         -49.8575          66.939         -49.8575         66.9384       -0.0191358         144.365
0.598                   -1.45237        -175.224         -49.7886         65.1104         -49.7886         65.1098       -0.0193337         144.288
0.599                   -1.48436        -176.125         -49.7177         63.2844         -49.7177         63.2838       -0.0195343         144.211
0.6                     -1.51838        -177.036         -49.6449         61.4602         -49.6449         61.4596       -0.0197375         144.134
0.601                   -1.55449        -177.957         -49.5703         59.6371         -49.5703         59.6365       -0.0199434         144.057
0.602                    -1.5928        -178.889         -49.4938         57.8142         -49.4938         57.8137       -0.0201519         143.979
0.603                   -1.63338        -179.831         -49.4155         55.9909         -49.4155         55.9904       -0.0203632         143.902
0.604                   -1.67633         179.216         -49.3354         54.1664         -49.3354         54.1659       -0.0205772         143.824
0.605                   -1.72175         178.253         -49.2536           52.34         -49.2536         52.3396       -0.0207939         143.746
0.606                   -1.76975          177.28         -49.1701         50.5111         -49.1701         50.5106       -0.0210134         143.668
0.607                   -1.82044         176.297          -49.085         48.6788         -49.0851         48.6784       -0.0212357         143.589
0.608                   -1.87394         175.303         -48.9984         46.8426         -48.9984         46.8423       -0.0214608          143.51
0.609                   -1.93037           174.3         -48.9102         45.0018         -48.9103         45.0015       -0.0216887         143.431
0.61                    -1.98987         173.287         -48.8206         43.1558         -48.8207         43.1555       -0.0219195         143.352
0.611                   -2.05258         172.265         -48.7296         41.3038         -48.7297         41.3036       -0.0221532         143.273
0.612                   -2.11863         171.234         -48.6373         39.4453         -48.6374         39.4451       -0.0223899         143.193
0.613                   -2.18818         170.194         -48.5438         37.5797         -48.5439         37.5796       -0.0226295         143.114
0.614                   -2.26139         169.146         -48.4492         35.7063         -48.4492         35.7062       -0.0228721         143.034
0.615                   -2.33842         168.089         -48.3534         33.8247         -48.3535         33.8246       -0.0231177         142.953
0.616                   -2.41945         167.026         -48.2567         31.9341         -48.2567         31.9341       -0.0233664         142.873
0.617                   -2.50466         165.956         -48.1591         30.0342         -48.1591         30.0342       -0.0236182         142.792
0.618                   -2.59423         164.879         -48.0607         28.1244         -48.0608         28.1244       -0.0238732         142.711
0.619                   -2.68834         163.798         -47.9617         26.2041         -47.9617         26.2042       -0.0241313          142.63
0.62                    -2.78721         162.712          -47.862          24.273         -47.8621         24.2731       -0.0243927         142.549
0.621                   -2.89103         161.623          -47.762         22.3306          -47.762         22.3307       -0.0246573         142.467
0.622                         -3         160.532         -47.6616         20.3766         -47.6616         20.3767       -0.0249252         142.385
0.623                   -3.11434          159.44          -47.561         18.4105          -47.561         18.4107       -0.0251965         142.303
0.624                   -3.23427         158.349         -47.4603         16.4322         -47.4603         16.4323       -0.0254712         142.221
0.625                   -3.35999          157.26         -47.3597         14.4413         -47.3597         14.4414       -0.0257494         142.138
0.626                   -3.49173         156.174         -47.2593         12.4376         -47.2593         12.4377       -0.0260312         142.055
0.627                    -3.6297         155.095         -47.1593          10.421         -47.1593         10.4211       -0.0263165         141.972
0.628                    -3.7741         154.024         -47.0598          8.3914         -47.0597         8.39153       -0.0266055         141.889
0.629                   -3.92515         152.964         -46.9609         6.34879         -46.9609         6.34891       -0.0268982         141.805
0.63                    -4.08304         151.916         -46.8629         4.29321         -46.8628         4.29332       -0.0271947         141.721
0.631                   -4.24795         150.885         -46.7658         2.22479         -46.7658         2.22488        -0.027495         141.637
0.632                   -4.42006         149.873         -46.6699        0.143708         -46.6698        0.143781       -0.0277993         141.552
0.633                   -4.59951         148.883         -46.5752        -1.94975         -46.5752         -1.9497       -0.0281076         141.468
0.634                   -4.78644          147.92         -46.4821        -4.05523          -46.482         -4.0552       -0.0284201         141.382
0.635                   -4.98093         146.987         -46.3905        -6.17229         -46.3905        -6.17228       -0.0287367         141.297
0.636                   -5.18305         146.088         -46.3008         -8.3004         -46.3007        -8.30043       -0.0290577         141.211
0.637                    -5.3928         145.229         -46.2129         -10.439         -46.2129         -10.439        -0.029383         141.125
0.638                   -5.61016         144.414         -46.1272        -12.5873         -46.1271        -12.5874       -0.0297128         141.039
0.639                   -5.83502          143.65         -46.0436        -14.7446         -46.0436        -14.7447       -0.0300472         140.952
0.64                     -6.0672          142.94         -45.9624        -16.9099         -45.9624        -16.9101       -0.0303864         140.865
0.641                   -6.30644         142.292         -45.8837        -19.0825         -45.8837        -19.0826       -0.0307304         140.778
0.642                   -6.55239         141.712         -45.8076        -21.2612         -45.8075        -21.2614       -0.0310793         140.691
0.643                   -6.80457         141.206         -45.7342        -23.4449         -45.7341        -23.4451       -0.0314333         140.603
0.644                   -7.06236         140.781         -45.6635        -25.6325         -45.6635        -25.6328       -0.0317926         140.514
0.645                   -7.32503         140.444         -45.5957        -27.8229         -45.5957        -27.8231       -0.0321572         140.426
0.646                   -7.59164         140.202         -45.5309        -30.0146         -45.5308        -30.0149       -0.0325273         140.337
0.647                   -7.86108         140.061          -45.469        -32.2065          -45.469        -32.2068       -0.0329031         140.248
0.648                   -8.13207         140.028         -45.4102        -34.3972         -45.4101        -34.3976       -0.0332847         140.158
0.649                   -8.40307         140.109         -45.3543        -36.5854         -45.3543        -36.5857       -0.0336723         140.068
0.65                    -8.67236         140.308         -45.3015        -38.7696         -45.3015          -38.77        -0.034066         139.978
0.651                   -8.93798         140.629         -45.2517        -40.9486         -45.2517        -40.9489        -0.034466         139.887
0.652                   -9.19778         141.075         -45.2049        -43.1209         -45.2049        -43.1213       -0.0348726         139.796
0.653                   -9.44943         141.645          -45.161        -45.2853          -45.161        -45.2856       -0.0352858         139.704
0.654                   -9.69043         142.338           -45.12        -47.4404         -45.1199        -47.4407       -0.0357059         139.612
0.655                   -9.91825         143.148         -45.0817         -49.585         -45.0817        -49.5853       -0.0361331          139.52
0.656                   -10.1303         144.069         -45.0461        -51.7178         -45.0461        -51.7181       -0.0365676         139.428
0.657                   -10.3243         145.089         -45.0131        -53.8377         -45.0131         -53.838       -0.0370096         139.334
0.658                   -10.4978         146.195         -44.9825        -55.9437         -44.9825         -55.944       -0.0374592         139.241
0.659                   -10.6489         147.369         -44.9543        -58.0346         -44.9543        -58.0349       -0.0379168         139.147
0.66                    -10.7763         148.592         -44.9282        -60.1096         -44.9282        -60.1099       -0.0383825         139.053
0.661                   -10.8789         149.845         -44.9042        -62.1678         -44.9042         -62.168       -0.0388566         138.958
0.662                   -10.9563         151.105          -44.882        -64.2084          -44.882        -64.2085       -0.0393394         138.863
0.663                   -11.0087         152.349         -44.8615        -66.2306         -44.8615        -66.2308       -0.0398309         138.767
0.664                   -11.0368         153.558         -44.8425         -68.234         -44.8425        -68.2341       -0.0403316         138.671
0.665                   -11.0419         154.712         -44.8249         -70.218         -44.8249        -70.2181       -0.0408417         138.575
0.666                   -11.0258         155.793         -44.8084        -72.1821         -44.8084        -72.1821       -0.0413613         138.478
0.667                   -10.9903         156.787          -44.793         -74.126         -44.7929         -74.126       -0.0418909          138.38
0.668                   -10.9378         157.682         -44.7783        -76.0494         -44.7782        -76.0495       -0.0424306         138.282
0.669                   -10.8706         158.471         -44.7642        -77.9523         -44.7642        -77.9523       -0.0429807         138.184
0.67                    -10.7911         159.147         -44.7506        -79.8344         -44.7505        -79.8343       -0.0435416         138.085
0.671                   -10.7016         159.706         -44.7372        -81.6957         -44.7372        -81.6957       -0.0441134         137.986
0.672                   -10.6042         160.149         -44.7239        -83.5364         -44.7239        -83.5363       -0.0446965         137.886
0.673                    -10.501         160.475         -44.7106        -85.3564         -44.7105        -85.3563       -0.0452912         137.785
0.674                   -10.3938         160.688         -44.6969        -87.1561         -44.6969         -87.156       -0.0458978         137.684
0.675                   -10.2842         160.789         -44.6829        -88.9356         -44.6828        -88.9354       -0.0465166         137.583
0.676                   -10.1737         160.785         -44.6683        -90.6952         -44.6682        -90.6951        -0.047148         137.481
0.677                   -10.0635         160.678          -44.653        -92.4354         -44.6529        -92.4352       -0.0477921         137.378
0.678                   -9.95463         160.475         -44.6368        -94.1564         -44.6367        -94.1562       -0.0484494         137.275
0.679                   -9.84806          160.18         -44.6195        -95.8588         -44.6194        -95.8586       -0.0491203         137.172
0.68                    -9.74452         159.798         -44.6012        -97.5429         -44.6011        -97.5427       -0.0498049         137.067
0.681                   -9.64465         159.335         -44.5815        -99.2095         -44.5814        -99.2093       -0.0505038         136.963
0.682                   -9.54895         158.795         -44.5604        -100.859         -44.5603        -100.859       -0.0512172         136.857
0.683                   -9.45787         158.183         -44.5379        -102.492         -44.5378        -102.492       -0.0519456         136.751
0.684                   -9.37173         157.503         -44.5137        -104.109         -44.5136        -104.109       -0.0526892         136.645
0.685                   -9.29083         156.758         -44.4877        -105.711         -44.4876         -105.71       -0.0534486         136.537
0.686                   -9.21537         155.954           -44.46        -107.298         -44.4599        -107.297        -0.054224         136.429
0.687                   -9.14554         155.092         -44.4303        -108.871         -44.4302        -108.871       -0.0550159         136.321
0.688                   -9.08147         154.177         -44.3986        -110.431         -44.3984        -110.431       -0.0558246         136.212
0.689                   -9.02327          153.21         -44.3648        -111.978         -44.3646        -111.978       -0.0566507         136.102
0.69                    -8.97102         152.196         -44.3288        -113.514         -44.3287        -113.514       -0.0574946         135.991
0.691                   -8.92479         151.135         -44.2906        -115.039         -44.2905        -115.038       -0.0583566          135.88
0.692                   -8.88464          150.03         -44.2501        -116.553           -44.25        -116.553       -0.0592373         135.768
0.693                    -8.8506         148.883         -44.2073        -118.058         -44.2071        -118.058       -0.0601372         135.656
0.694                   -8.82272         147.695          -44.162        -119.554         -44.1619        -119.554       -0.0610566         135.543
0.695                   -8.80104         146.468         -44.1143        -121.042         -44.1141        -121.042       -0.0619961         135.428
0.696                   -8.78559         145.202         -44.0641        -122.523         -44.0639        -122.523       -0.0629563         135.314