! TOUCHSTONE file generated by CST MICROWAVE STUDIO
! Date and time: Mon Nov 30 08:08:57 2020
! Project name: Scenario_1_Planar_Body_Tissue_Out_of_Line.cst
! Parameters = {dy1=311.4; L_HA=400; Ltissue=700; MT=2.54; Rad_Dielectric=30; Rad_Lower=7.3; Rad_Upper=30; Wtissue=700; a_HA=580; a_WG=246; b_HA=500; b_WG=121; c_HA=0; c_WG=187; d_feed=85; dx1=866; h_feed=15; h_lower=18; h_upper=40; hfat=3; hgap=25; hmuscle=50; hskin=1.5}
! Header version: 2018
! Port assignment regex: !\s*Touchstone port\s*([0-9]+)\s*=\s*(CST MWS port|CST DS port)\s*([0-9]+|Zmin|Zmax)\s*\(\"(.*)\"\)(\s*mode\s*([0-9]+))?.*
! Touchstone port assignment:
! Touchstone port 1 = CST MWS port 1 ("")
! Touchstone port 2 = CST MWS port 2 ("")
# GHz S DB R 50
0.5                    -0.126389        -122.086         -65.2636         79.7719         -65.2629         79.7797      -0.00753225         151.149
0.501                  -0.132581        -122.537          -65.028         77.8762         -65.0274         77.8836      -0.00760542         151.083
0.502                  -0.139153        -122.992         -64.7898         75.9431         -64.7893         75.9501      -0.00767957         151.018
0.503                  -0.146128        -123.449         -64.5494         73.9711          -64.549         73.9778      -0.00775474         150.953
0.504                  -0.153534        -123.908          -64.307         71.9589         -64.3065         71.9653      -0.00783094         150.887
0.505                  -0.161394         -124.37         -64.0626         69.9052         -64.0622         69.9112       -0.0079082         150.822
0.506                  -0.169737        -124.835         -63.8168         67.8086         -63.8164         67.8143      -0.00798653         150.756
0.507                  -0.178586        -125.301         -63.5696         65.6678         -63.5693         65.6733      -0.00806594          150.69
0.508                  -0.187968        -125.769         -63.3216         63.4816         -63.3213         63.4869      -0.00814646         150.625
0.509                  -0.197907        -126.239         -63.0729         61.2489         -63.0727         61.2539      -0.00822809         150.559
0.51                   -0.208422         -126.71         -62.8241         58.9686         -62.8239         58.9734      -0.00831084         150.493
0.511                  -0.219534        -127.183         -62.5755         56.6399         -62.5754         56.6445      -0.00839471         150.427
0.512                  -0.231256        -127.656         -62.3276          54.262         -62.3275         54.2665      -0.00847969         150.361
0.513                  -0.243598         -128.13         -62.0809         51.8345         -62.0809         51.8388      -0.00856577         150.295
0.514                  -0.256564        -128.604         -61.8359         49.3571         -61.8359         49.3612      -0.00865292         150.228
0.515                  -0.270149        -129.078         -61.5931         46.8298         -61.5931         46.8337      -0.00874113         150.162
0.516                   -0.28434        -129.551         -61.3531         44.2528         -61.3532         44.2566      -0.00883034         150.096
0.517                  -0.299116        -130.023         -61.1165          41.627         -61.1166         41.6306      -0.00892051         150.029
0.518                  -0.314441        -130.494         -60.8839         38.9532          -60.884         38.9567      -0.00901158         149.963
0.519                  -0.330272        -130.962         -60.6558          36.233         -60.6559         36.2363      -0.00910347         149.896
0.52                   -0.346549        -131.428         -60.4328         33.4682          -60.433         33.4713       -0.0091961         149.829
0.521                  -0.363203        -131.892         -60.2156         30.6612         -60.2158         30.6641      -0.00928939         149.762
0.522                  -0.380151        -132.352         -60.0047         27.8146         -60.0049         27.8174      -0.00938322         149.696
0.523                  -0.397301        -132.809         -59.8006         24.9318         -59.8008         24.9343      -0.00947752         149.629
0.524                  -0.414549        -133.262         -59.6038         22.0163          -59.604         22.0186      -0.00957215         149.562
0.525                  -0.431785        -133.712         -59.4147         19.0721          -59.415         19.0742      -0.00966704         149.494
0.526                  -0.448895        -134.158         -59.2337         16.1037         -59.2341         16.1056      -0.00976207         149.427
0.527                  -0.465764        -134.602         -59.0612         13.1158         -59.0615         13.1174      -0.00985717          149.36
0.528                  -0.482278        -135.042         -58.8973         10.1131         -58.8976         10.1145      -0.00995224         149.292
0.529                  -0.498332        -135.479         -58.7421         7.10094         -58.7425         7.10206       -0.0100472         149.225
0.53                   -0.513828        -135.915         -58.5958         4.08434         -58.5963         4.08521       -0.0101421         149.157
0.531                  -0.528683        -136.349         -58.4583         1.06849         -58.4588         1.06912       -0.0102368          149.09
0.532                  -0.542829        -136.783         -58.3294        -1.94153         -58.3299        -1.94114       -0.0103314         149.022
0.533                  -0.556215        -137.217         -58.2091        -4.94083         -58.2096        -4.94067       -0.0104258         148.954
0.534                   -0.56881        -137.651         -58.0968        -7.92473         -58.0974        -7.92479       -0.0105202         148.886
0.535                    -0.5806        -138.088         -57.9924        -10.8889         -57.9931        -10.8891       -0.0106145         148.818
0.536                   -0.59159        -138.528         -57.8954        -13.8293         -57.8961        -13.8298       -0.0107088          148.75
0.537                  -0.601805        -138.971         -57.8054        -16.7424         -57.8061         -16.743       -0.0108032         148.682
0.538                   -0.61128        -139.418         -57.7217        -19.6251         -57.7224        -19.6258       -0.0108978         148.613
0.539                  -0.620067         -139.87         -57.6439        -22.4746         -57.6447        -22.4754       -0.0109926         148.545
0.54                   -0.628228        -140.328         -57.5714        -25.2888         -57.5722        -25.2897       -0.0110879         148.476
0.541                  -0.635833        -140.792         -57.5036        -28.0658         -57.5045        -28.0667       -0.0111836         148.408
0.542                  -0.642957        -141.263         -57.4399        -30.8044         -57.4408        -30.8053         -0.01128         148.339
0.543                  -0.649679         -141.74         -57.3798        -33.5036         -57.3807        -33.5045        -0.011377          148.27
0.544                  -0.656082        -142.225         -57.3226        -36.1629         -57.3236        -36.1639       -0.0114748         148.201
0.545                  -0.662247        -142.718         -57.2679        -38.7823         -57.2689        -38.7832       -0.0115734         148.132
0.546                  -0.668254        -143.219          -57.215        -41.3618         -57.2161        -41.3626        -0.011673         148.063
0.547                  -0.674182        -143.727         -57.1635         -43.902         -57.1646        -43.9027       -0.0117737         147.993
0.548                  -0.680106        -144.244         -57.1129        -46.4036          -57.114        -46.4042       -0.0118754         147.924
0.549                  -0.686098        -144.769         -57.0628        -48.8675         -57.0639         -48.868       -0.0119783         147.854
0.55                   -0.692227        -145.302         -57.0127        -51.2949         -57.0138        -51.2952       -0.0120824         147.784
0.551                  -0.698559        -145.844         -56.9622        -53.6871         -56.9634        -53.6873       -0.0121877         147.715
0.552                  -0.705156        -146.393         -56.9111        -56.0455         -56.9123        -56.0456       -0.0122944         147.645
0.553                  -0.712076        -146.951         -56.8589        -58.3716         -56.8601        -58.3716       -0.0124025         147.575
0.554                  -0.719374        -147.517         -56.8054        -60.6672         -56.8066        -60.6669       -0.0125119         147.504
0.555                  -0.727105        -148.092         -56.7504        -62.9337         -56.7516        -62.9334       -0.0126228         147.434
0.556                  -0.735318        -148.674         -56.6935         -65.173         -56.6947        -65.1725       -0.0127352         147.364
0.557                  -0.744063        -149.265         -56.6347        -67.3868         -56.6358        -67.3862       -0.0128491         147.293
0.558                  -0.753388        -149.864         -56.5736        -69.5768         -56.5747        -69.5761       -0.0129645         147.222
0.559                   -0.76334         -150.47         -56.5101        -71.7448         -56.5112         -71.744       -0.0130815         147.152
0.56                   -0.773965        -151.085         -56.4442        -73.8925         -56.4453        -73.8917       -0.0132001         147.081
0.561                  -0.785308        -151.707         -56.3756        -76.0218         -56.3767        -76.0209       -0.0133203          147.01
0.562                  -0.797416        -152.338         -56.3044        -78.1342         -56.3054        -78.1333       -0.0134422         146.938
0.563                  -0.810336        -152.977         -56.2303        -80.2315         -56.2312        -80.2306       -0.0135657         146.867
0.564                  -0.824117        -153.623         -56.1533        -82.3153         -56.1542        -82.3144        -0.013691         146.796
0.565                  -0.838805        -154.277         -56.0734        -84.3873         -56.0743        -84.3865        -0.013818         146.724
0.566                  -0.854454        -154.939         -55.9905         -86.449         -55.9914        -86.4483       -0.0139467         146.652
0.567                  -0.871114        -155.609         -55.9047        -88.5021         -55.9055        -88.5014       -0.0140773          146.58
0.568                  -0.888841        -156.286         -55.8158         -90.548         -55.8166        -90.5475       -0.0142096         146.508
0.569                  -0.907692        -156.972         -55.7239        -92.5883         -55.7247        -92.5879       -0.0143438         146.436
0.57                   -0.927727        -157.665          -55.629        -94.6244         -55.6298        -94.6241       -0.0144798         146.364
0.571                  -0.949009        -158.365         -55.5312        -96.6577         -55.5319        -96.6575       -0.0146178         146.292
0.572                  -0.971603        -159.073         -55.4303        -98.6896          -55.431        -98.6896       -0.0147577         146.219
0.573                  -0.995579        -159.789         -55.3265        -100.721         -55.3272        -100.722       -0.0148995         146.146
0.574                   -1.02101        -160.512         -55.2199        -102.755         -55.2205        -102.755       -0.0150433         146.073
0.575                   -1.04797        -161.242         -55.1104        -104.791          -55.111        -104.791       -0.0151891             146
0.576                   -1.07655        -161.979         -54.9981         -106.83         -54.9987        -106.831        -0.015337         145.927
0.577                   -1.10682        -162.723          -54.883        -108.875         -54.8837        -108.876        -0.015487         145.854
0.578                   -1.13887        -163.474         -54.7654        -110.926          -54.766        -110.927       -0.0156391         145.781
0.579                   -1.17281        -164.231         -54.6452        -112.985         -54.6458        -112.986       -0.0157933         145.707
0.58                    -1.20871        -164.994         -54.5225        -115.052         -54.5231        -115.053       -0.0159497         145.633
0.581                   -1.24669        -165.763         -54.3974        -117.129          -54.398        -117.131       -0.0161082         145.559
0.582                   -1.28685        -166.537         -54.2701        -119.217         -54.2707        -119.219       -0.0162691         145.485
0.583                   -1.32928        -167.316         -54.1406        -121.317         -54.1412        -121.319       -0.0164321         145.411
0.584                   -1.37411        -168.099          -54.009         -123.43         -54.0097        -123.431       -0.0165975         145.337
0.585                   -1.42144        -168.886         -53.8756        -125.557         -53.8763        -125.558       -0.0167652         145.262
0.586                   -1.47137        -169.676         -53.7404        -127.698         -53.7411          -127.7       -0.0169352         145.187
0.587                   -1.52404        -170.468         -53.6036        -129.856         -53.6043        -129.857       -0.0171075         145.113
0.588                   -1.57953         -171.26         -53.4653         -132.03          -53.466        -132.032       -0.0172823         145.038
0.589                   -1.63796        -172.053         -53.3257        -134.222         -53.3264        -134.223       -0.0174595         144.962
0.59                    -1.69943        -172.845          -53.185        -136.432         -53.1857        -136.433        -0.017639         144.887
0.591                   -1.76403        -173.635         -53.0434        -138.661         -53.0441        -138.662        -0.017821         144.812
0.592                   -1.83185         -174.42         -52.9011         -140.91         -52.9018        -140.911       -0.0180055         144.736
0.593                   -1.90295          -175.2         -52.7582        -143.179         -52.7589         -143.18       -0.0181924          144.66
0.594                   -1.97739        -175.973          -52.615        -145.469         -52.6157         -145.47       -0.0183818         144.584
0.595                    -2.0552        -176.736         -52.4718        -147.781         -52.4725        -147.781       -0.0185736         144.508
0.596                   -2.13638        -177.488         -52.3287        -150.113         -52.3294        -150.113        -0.018768         144.431
0.597                   -2.22092        -178.227         -52.1861        -152.467         -52.1867        -152.467       -0.0189648         144.355
0.598                   -2.30875         -178.95         -52.0441        -154.843         -52.0447        -154.843       -0.0191641         144.278
0.599                   -2.39978        -179.655          -51.903        -157.241         -51.9036         -157.24       -0.0193659         144.201
0.6                     -2.49386          179.66         -51.7632         -159.66         -51.7637        -159.659       -0.0195702         144.124
0.601                   -2.59078         178.999         -51.6247          -162.1         -51.6252        -162.099        -0.019777         144.046
0.602                    -2.6903         178.364          -51.488         -164.56         -51.4884        -164.559       -0.0199862         143.969
0.603                   -2.79209         177.758         -51.3533        -167.041         -51.3537        -167.039        -0.020198         143.891
0.604                   -2.89578         177.182         -51.2208         -169.54         -51.2211        -169.539       -0.0204123         143.813
0.605                   -3.00091         176.639         -51.0909        -172.057         -51.0911        -172.056       -0.0206292         143.735
0.606                   -3.10695         176.131         -50.9636        -174.591         -50.9638         -174.59       -0.0208485         143.657
0.607                   -3.21333         175.661         -50.8394        -177.141         -50.8395         -177.14       -0.0210705         143.578
0.608                    -3.3194         175.228         -50.7183        -179.704         -50.7184        -179.703        -0.021295         143.499
0.609                   -3.42444         174.833         -50.6006         177.721         -50.6006         177.722       -0.0215221          143.42
0.61                    -3.52771         174.478         -50.4864         175.136         -50.4864         175.136       -0.0217519         143.341
0.611                   -3.62843         174.161         -50.3759         172.543         -50.3758         172.543       -0.0219843         143.262
0.612                   -3.72581          173.88         -50.2691         169.943         -50.2691         169.943       -0.0222195         143.182
0.613                   -3.81906         173.634         -50.1662          167.34         -50.1662         167.339       -0.0224574         143.102
0.614                   -3.90743         173.419         -50.0672         164.734         -50.0671         164.733       -0.0226981         143.022
0.615                   -3.99023         173.231         -49.9721          162.13          -49.972         162.129       -0.0229417         142.942
0.616                   -4.06681         173.067         -49.8808         159.528         -49.8808         159.527       -0.0231883         142.861
0.617                   -4.13666         172.921         -49.7933         156.931         -49.7933          156.93       -0.0234379         142.781
0.618                   -4.19936         172.787         -49.7095         154.342         -49.7095          154.34       -0.0236905           142.7
0.619                   -4.25463         172.658         -49.6292         151.762         -49.6293          151.76       -0.0239463         142.618
0.62                    -4.30232         172.529         -49.5523         149.193         -49.5524         149.191       -0.0242053         142.537
0.621                   -4.34244         172.393         -49.4785         146.638         -49.4786         146.635       -0.0244677         142.455
0.622                   -4.37512         172.244         -49.4077         144.097         -49.4078         144.094       -0.0247335         142.373
0.623                   -4.40062         172.075         -49.3395         141.572         -49.3397          141.57       -0.0250028         142.291
0.624                   -4.41934         171.881         -49.2737         139.065          -49.274         139.063       -0.0252757         142.209
0.625                   -4.43177         171.657           -49.21         136.576         -49.2103         136.574       -0.0255523         142.126
0.626                   -4.43848         171.397         -49.1481         134.107         -49.1485         134.105       -0.0258328         142.043
0.627                   -4.44011         171.099         -49.0877         131.658         -49.0881         131.656       -0.0261172         141.959
0.628                   -4.43734         170.759         -49.0285         129.229         -49.0289         129.228       -0.0264056         141.876
0.629                   -4.43087         170.374         -48.9702          126.82         -48.9707         126.819       -0.0266983         141.792
0.63                    -4.42143         169.942         -48.9125         124.432         -48.9129         124.432       -0.0269952         141.708
0.631                   -4.40972         169.461         -48.8551         122.065         -48.8555         122.064       -0.0272965         141.624
0.632                   -4.39643         168.932         -48.7976         119.717         -48.7981         119.717       -0.0276023         141.539
0.633                   -4.38223         168.354         -48.7399         117.388         -48.7403         117.389       -0.0279129         141.454
0.634                   -4.36775         167.726         -48.6817         115.078         -48.6821         115.079       -0.0282282         141.369
0.635                   -4.35358         167.049         -48.6227         112.786         -48.6231         112.787       -0.0285485         141.283
0.636                   -4.34029         166.324         -48.5627          110.51         -48.5631         110.511       -0.0288738         141.197
0.637                   -4.32838         165.551         -48.5016          108.25         -48.5019         108.251       -0.0292044         141.111
0.638                   -4.31834         164.731         -48.4391         106.004         -48.4393         106.005       -0.0295403         141.025
0.639                   -4.31061         163.866          -48.375         103.771         -48.3753         103.773       -0.0298817         140.938
0.64                     -4.3056         162.957         -48.3093          101.55         -48.3095         101.552       -0.0302288         140.851
0.641                   -4.30367         162.004         -48.2419         99.3391          -48.242         99.3411       -0.0305817         140.763
0.642                   -4.30519          161.01         -48.1725         97.1374         -48.1726         97.1394       -0.0309405         140.675
0.643                   -4.31049         159.974         -48.1013         94.9433         -48.1013         94.9452       -0.0313054         140.587
0.644                   -4.31987         158.899          -48.028         92.7552          -48.028         92.7571       -0.0316766         140.499
0.645                   -4.33362         157.785         -47.9527         90.5718         -47.9527         90.5736       -0.0320542          140.41
0.646                   -4.35204         156.634         -47.8753         88.3916         -47.8753         88.3933       -0.0324384         140.321
0.647                    -4.3754         155.447         -47.7959         86.2132         -47.7958         86.2147       -0.0328293         140.232
0.648                   -4.40398         154.224         -47.7144         84.0352         -47.7144         84.0366        -0.033227         140.142
0.649                   -4.43803         152.967         -47.6309         81.8562         -47.6309         81.8575       -0.0336318         140.052
0.65                    -4.47784         151.676         -47.5455         79.6751         -47.5455         79.6762       -0.0340438         139.961
0.651                   -4.52369         150.352         -47.4583         77.4903         -47.4582         77.4913       -0.0344631          139.87
0.652                   -4.57586         148.997         -47.3692         75.3009         -47.3691         75.3017       -0.0348899         139.779
0.653                   -4.63464         147.611         -47.2784         73.1055         -47.2783         73.1062       -0.0353244         139.687
0.654                   -4.70034         146.194          -47.186         70.9032          -47.186         70.9038       -0.0357666         139.595
0.655                   -4.77328         144.749         -47.0922         68.6928         -47.0921         68.6933       -0.0362169         139.503
0.656                    -4.8538         143.274          -46.997         66.4734         -46.9969         66.4738       -0.0366753          139.41
0.657                   -4.94225         141.773         -46.9006         64.2442         -46.9006         64.2444        -0.037142         139.317
0.658                   -5.03901         140.244         -46.8032         62.0042         -46.8032         62.0044       -0.0376171         139.223
0.659                   -5.14448          138.69         -46.7049         59.7529         -46.7049         59.7531       -0.0381008         139.129
0.66                    -5.25907         137.112         -46.6059         57.4896         -46.6059         57.4897       -0.0385933         139.035
0.661                   -5.38323          135.51         -46.5064         55.2138         -46.5064         55.2139       -0.0390946          138.94
0.662                   -5.51743         133.886         -46.4066         52.9251         -46.4066         52.9251       -0.0396051         138.845
0.663                   -5.66219         132.241         -46.3066         50.6231         -46.3066          50.623       -0.0401249         138.749
0.664                   -5.81802         130.578         -46.2066         48.3076         -46.2067         48.3075        -0.040654         138.653
0.665                    -5.9855         128.897          -46.107         45.9785          -46.107         45.9785       -0.0411927         138.556
0.666                   -6.16524           127.2         -46.0077         43.6359         -46.0078         43.6358       -0.0417412         138.459
0.667                   -6.35787         125.491         -45.9092         41.2799         -45.9092         41.2798       -0.0422996         138.362
0.668                   -6.56409          123.77         -45.8115         38.9107         -45.8115         38.9105       -0.0428681         138.264
0.669                   -6.78462         122.042         -45.7148         36.5287         -45.7149         36.5285        -0.043447         138.165
0.67                    -7.02025         120.309         -45.6194         34.1344         -45.6195         34.1341       -0.0440363         138.066
0.671                   -7.27181         118.575         -45.5255         31.7284         -45.5255          31.728       -0.0446363         137.967
0.672                   -7.54021         116.843         -45.4331         29.3114         -45.4332         29.3109       -0.0452472         137.867
0.673                    -7.8264         115.119         -45.3425         26.8842         -45.3426         26.8836       -0.0458692         137.767
0.674                   -8.13143         113.406         -45.2539         24.4477          -45.254         24.4471       -0.0465026         137.666
0.675                   -8.45642         111.712         -45.1674         22.0031         -45.1675         22.0023       -0.0471475         137.564
0.676                   -8.80261         110.043         -45.0831         19.5514         -45.0832         19.5504       -0.0478042         137.462
0.677                   -9.17132         108.406         -45.0012         17.0938         -45.0012         17.0927       -0.0484729          137.36
0.678                   -9.56401          106.81         -44.9217         14.6316         -44.9217         14.6303       -0.0491539         137.257
0.679                   -9.98228         105.266         -44.8447         12.1662         -44.8447         12.1647       -0.0498474         137.153
0.68                    -10.4279         103.786         -44.7703         9.69887         -44.7704         9.69721       -0.0505538         137.049
0.681                   -10.9028         102.385         -44.6985         7.23111         -44.6986         7.22925       -0.0512732         136.944
0.682                   -11.4091         101.078         -44.6294         4.76435         -44.6295          4.7623       -0.0520061         136.839
0.683                   -11.9493         99.8886         -44.5629         2.30005         -44.5631          2.2978       -0.0527527         136.733
0.684                   -12.5259         98.8411         -44.4991       -0.160344         -44.4993       -0.162778       -0.0535132         136.626
0.685                   -13.1417         97.9677         -44.4379        -2.61539         -44.4381          -2.618       -0.0542882         136.519
0.686                   -13.7999         97.3081         -44.3793        -5.06369         -44.3795        -5.06647       -0.0550778         136.411
0.687                   -14.5035          96.913         -44.3231        -7.50388         -44.3234        -7.50681       -0.0558825         136.303
0.688                   -15.2555         96.8473         -44.2693        -9.93466         -44.2696        -9.93772       -0.0567025         136.193
0.689                   -16.0583         97.1952         -44.2178        -12.3548         -44.2181        -12.3579       -0.0575384         136.084
0.69                     -16.913          98.066         -44.1684        -14.7631         -44.1688        -14.7663       -0.0583905         135.973
0.691                   -17.8175         99.6015         -44.1211        -17.1585         -44.1215        -17.1618       -0.0592591         135.862
0.692                    -18.764         101.982         -44.0756          -19.54         -44.0761        -19.5434       -0.0601449          135.75
0.693                   -19.7338         105.429         -44.0318        -21.9068         -44.0323        -21.9101        -0.061048         135.638
0.694                   -20.6908         110.181         -43.9895        -24.2579         -43.9901        -24.2612       -0.0619691         135.524
0.695                   -21.5725         116.436         -43.9486        -26.5928         -43.9492        -26.5961       -0.0629087          135.41
0.696                    -22.288         124.218         -43.9089        -28.9109         -43.9095         -28.914       -0.0638671         135.296