! TOUCHSTONE file generated by CST MICROWAVE STUDIO
! Date and time: Fri Dec 11 13:52:45 2020
! Project name: Scenario_1_Planar_Body_Tissue_Out_of_Line_v2.cst
! Parameters = {dy1=-311.4; L_HA=400; Ltissue=700; MT=2.54; Rad_Dielectric=30; Rad_Lower=7.3; Rad_Upper=30; Wtissue=700; a_HA=580; a_WG=246; b_HA=500; b_WG=121; c_HA=0; c_WG=187; d_feed=85; dx1=520; h_feed=15; h_lower=18; h_upper=40; hfat=3; hgap=25; hmuscle=50; hskin=1.5}
! Header version: 2018
! Port assignment regex: !\s*Touchstone port\s*([0-9]+)\s*=\s*(CST MWS port|CST DS port)\s*([0-9]+|Zmin|Zmax)\s*\(\"(.*)\"\)(\s*mode\s*([0-9]+))?.*
! Touchstone port assignment:
! Touchstone port 1 = CST MWS port 1 ("")
! Touchstone port 2 = CST MWS port 2 ("")
# GHz S DB R 50
0.5                    -0.100789        -121.955         -64.8189        -78.8852         -64.8185        -78.8822      -0.00735235         151.155
0.501                  -0.105349        -122.419         -64.5994        -79.9625          -64.599        -79.9597      -0.00742022          151.09
0.502                  -0.110167        -122.885         -64.3774        -81.0608         -64.3769        -81.0581      -0.00748916         151.024
0.503                   -0.11525        -123.354         -64.1527        -82.1806         -64.1523        -82.1781      -0.00755919         150.959
0.504                  -0.120611        -123.825         -63.9253        -83.3226         -63.9249        -83.3202      -0.00763031         150.894
0.505                   -0.12626        -124.299         -63.6953        -84.4874          -63.695        -84.4852      -0.00770252         150.828
0.506                  -0.132209        -124.776         -63.4627        -85.6757         -63.4623        -85.6737      -0.00777583         150.762
0.507                  -0.138472        -125.256         -63.2274        -86.8883          -63.227        -86.8865      -0.00785024         150.697
0.508                  -0.145061        -125.738         -62.9894         -88.126          -62.989        -88.1244      -0.00792576         150.631
0.509                  -0.151992        -126.223         -62.7487        -89.3895         -62.7484        -89.3881       -0.0080024         150.565
0.51                    -0.15928         -126.71         -62.5053        -90.6798          -62.505        -90.6785      -0.00808016         150.499
0.511                  -0.166942        -127.201         -62.2593        -91.9977          -62.259        -91.9965      -0.00815905         150.433
0.512                  -0.174997        -127.694         -62.0107        -93.3441         -62.0104        -93.3431      -0.00823908         150.367
0.513                  -0.183463         -128.19         -61.7594        -94.7201         -61.7591        -94.7192      -0.00832025         150.301
0.514                  -0.192361        -128.689         -61.5055        -96.1267         -61.5052        -96.1259      -0.00840257         150.234
0.515                  -0.201714        -129.191          -61.249        -97.5649         -61.2488        -97.5643      -0.00848605         150.168
0.516                  -0.211544        -129.696           -60.99        -99.0358         -60.9899        -99.0354      -0.00857068         150.102
0.517                  -0.221878        -130.204         -60.7286        -100.541         -60.7285         -100.54      -0.00865649         150.035
0.518                  -0.232742        -130.715         -60.4648        -102.081         -60.4647        -102.081      -0.00874348         149.968
0.519                  -0.244166        -131.228         -60.1987        -103.657         -60.1986        -103.657      -0.00883166         149.902
0.52                   -0.256181        -131.745         -59.9304        -105.272         -59.9303        -105.272      -0.00892102         149.835
0.521                  -0.268819        -132.264         -59.6601        -106.925           -59.66        -106.925      -0.00901159         149.768
0.522                  -0.282115        -132.786         -59.3877        -108.619         -59.3877        -108.619      -0.00910337         149.701
0.523                  -0.296108         -133.31         -59.1136        -110.355         -59.1136        -110.355      -0.00919636         149.634
0.524                  -0.310836        -133.838         -58.8379        -112.134         -58.8378        -112.134      -0.00929058         149.567
0.525                  -0.326341        -134.367         -58.5607        -113.958         -58.5607        -113.959      -0.00938603           149.5
0.526                  -0.342668        -134.899         -58.2823        -115.828         -58.2823        -115.829      -0.00948271         149.433
0.527                  -0.359862        -135.433         -58.0029        -117.746         -58.0029        -117.747      -0.00958065         149.365
0.528                  -0.377972        -135.969         -57.7229        -119.714         -57.7229        -119.714      -0.00967983         149.298
0.529                  -0.397047        -136.507         -57.4424        -121.732         -57.4425        -121.732      -0.00978028          149.23
0.53                   -0.417139        -137.045          -57.162        -123.802         -57.1621        -123.802      -0.00988199         149.163
0.531                  -0.438298        -137.585         -56.8818        -125.925          -56.882        -125.926      -0.00998498         149.095
0.532                  -0.460576        -138.125         -56.6024        -128.102         -56.6026        -128.103       -0.0100892         149.027
0.533                  -0.484024        -138.666         -56.3242        -130.335         -56.3244        -130.336       -0.0101948         148.959
0.534                  -0.508689        -139.205         -56.0477        -132.625         -56.0479        -132.626       -0.0103016         148.891
0.535                  -0.534617        -139.744         -55.7734        -134.971         -55.7736        -134.972       -0.0104097         148.823
0.536                  -0.561844         -140.28         -55.5018        -137.374          -55.502        -137.375       -0.0105191         148.755
0.537                  -0.590401        -140.814         -55.2335        -139.835         -55.2337        -139.836       -0.0106298         148.687
0.538                  -0.620306        -141.343         -54.9691        -142.353         -54.9694        -142.354       -0.0107418         148.618
0.539                  -0.651562        -141.868         -54.7093        -144.928         -54.7096        -144.929       -0.0108551          148.55
0.54                   -0.684152        -142.387         -54.4547        -147.558          -54.455        -147.559       -0.0109696         148.481
0.541                  -0.718038        -142.898          -54.206        -150.242         -54.2063        -150.243       -0.0110854         148.412
0.542                  -0.753152        -143.401         -53.9639        -152.978         -53.9642        -152.978       -0.0112025         148.344
0.543                   -0.78939        -143.894         -53.7289        -155.763         -53.7292        -155.764       -0.0113208         148.275
0.544                   -0.82661        -144.375         -53.5018        -158.595         -53.5021        -158.595       -0.0114403         148.206
0.545                  -0.864626        -144.843         -53.2831        -161.469         -53.2835         -161.47        -0.011561         148.137
0.546                  -0.903201        -145.296         -53.0735        -164.383         -53.0739        -164.383       -0.0116829         148.067
0.547                  -0.942047        -145.734         -52.8734         -167.33         -52.8737        -167.331        -0.011806         147.998
0.548                  -0.980824        -146.156         -52.6832        -170.307         -52.6836        -170.307       -0.0119301         147.929
0.549                   -1.01914         -146.56         -52.5034        -173.308         -52.5038        -173.308       -0.0120554         147.859
0.55                    -1.05656        -146.946         -52.3341        -176.327         -52.3345        -176.327       -0.0121816          147.79
0.551                   -1.09262        -147.315         -52.1757        -179.359          -52.176        -179.358       -0.0123088          147.72
0.552                   -1.12682        -147.667         -52.0281         177.604         -52.0284         177.604       -0.0124369          147.65
0.553                   -1.15868        -148.003         -51.8913         174.566         -51.8916         174.566       -0.0125658          147.58
0.554                   -1.18774        -148.327         -51.7652         171.533         -51.7655         171.534       -0.0126954          147.51
0.555                   -1.21357         -148.64         -51.6495         168.512         -51.6498         168.513       -0.0128257          147.44
0.556                   -1.23583        -148.945          -51.544         165.508         -51.5443         165.508       -0.0129566          147.37
0.557                   -1.25426        -149.247         -51.4482         162.526         -51.4485         162.526       -0.0130879         147.299
0.558                   -1.26872        -149.549         -51.3617          159.57          -51.362         159.571       -0.0132197         147.229
0.559                   -1.27918        -149.856          -51.284         156.645         -51.2842         156.646       -0.0133517         147.158
0.56                    -1.28573        -150.171         -51.2143         153.755         -51.2146         153.756       -0.0134839         147.087
0.561                   -1.28858        -150.499         -51.1522         150.903         -51.1524         150.904       -0.0136162         147.016
0.562                   -1.28802        -150.843         -51.0969         148.092         -51.0971         148.093       -0.0137485         146.945
0.563                   -1.28445        -151.207         -51.0478         145.323         -51.0481         145.324       -0.0138807         146.874
0.564                    -1.2783        -151.592         -51.0043         142.598         -51.0045         142.599       -0.0140127         146.803
0.565                   -1.27004            -152         -50.9656         139.919         -50.9658          139.92       -0.0141446         146.732
0.566                   -1.26016        -152.432         -50.9312         137.286         -50.9314         137.287       -0.0142763          146.66
0.567                   -1.24914         -152.89         -50.9004           134.7         -50.9005         134.701       -0.0144078         146.589
0.568                   -1.23742        -153.373         -50.8726          132.16         -50.8727         132.161       -0.0145391         146.517
0.569                   -1.22542         -153.88         -50.8472         129.666         -50.8473         129.667       -0.0146703         146.445
0.57                    -1.21351        -154.412         -50.8237         127.217         -50.8238         127.218       -0.0148015         146.373
0.571                   -1.20202        -154.967         -50.8017         124.813         -50.8018         124.814       -0.0149329         146.301
0.572                   -1.19123        -155.545         -50.7806         122.452         -50.7807         122.453       -0.0150645         146.228
0.573                   -1.18137        -156.143         -50.7601         120.133         -50.7602         120.134       -0.0151967         146.156
0.574                   -1.17263        -156.761         -50.7397         117.855         -50.7398         117.855       -0.0153295         146.083
0.575                   -1.16517        -157.398         -50.7191         115.616         -50.7192         115.616       -0.0154633          146.01
0.576                   -1.15911        -158.052          -50.698         113.414          -50.698         113.415       -0.0155983         145.937
0.577                   -1.15454        -158.723          -50.676         111.249         -50.6761         111.249       -0.0157346         145.864
0.578                   -1.15153        -159.409          -50.653         109.117          -50.653         109.118       -0.0158727         145.791
0.579                   -1.15012        -160.109         -50.6287         107.019         -50.6287         107.019       -0.0160126         145.717
0.58                    -1.15037        -160.823         -50.6028         104.951         -50.6028         104.951       -0.0161547         145.644
0.581                   -1.15228        -161.549         -50.5753         102.912         -50.5753         102.912        -0.016299          145.57
0.582                   -1.15587        -162.288         -50.5459         100.901         -50.5459         100.901       -0.0164459         145.496
0.583                   -1.16115        -163.038         -50.5145         98.9151         -50.5145         98.9154       -0.0165954         145.422
0.584                   -1.16812        -163.799          -50.481         96.9538          -50.481         96.9539       -0.0167477         145.348
0.585                   -1.17679        -164.571         -50.4453         95.0149         -50.4453         95.0151       -0.0169029         145.273
0.586                   -1.18715        -165.352         -50.4073         93.0971         -50.4073         93.0972        -0.017061         145.199
0.587                   -1.19921        -166.144          -50.367         91.1987          -50.367         91.1988       -0.0172223         145.124
0.588                   -1.21297        -166.945         -50.3242         89.3183         -50.3242         89.3183       -0.0173866         145.049
0.589                   -1.22844        -167.756          -50.279         87.4543          -50.279         87.4543        -0.017554         144.974
0.59                    -1.24563        -168.576         -50.2313         85.6055         -50.2313         85.6055       -0.0177246         144.898
0.591                   -1.26454        -169.405          -50.181         83.7703          -50.181         83.7703       -0.0178984         144.823
0.592                    -1.2852        -170.243         -50.1283         81.9475         -50.1283         81.9475       -0.0180753         144.747
0.593                   -1.30762         -171.09          -50.073         80.1358          -50.073         80.1358       -0.0182553         144.672
0.594                   -1.33183        -171.947         -50.0151          78.334         -50.0151         78.3339       -0.0184385         144.596
0.595                   -1.35786        -172.812         -49.9548         76.5407         -49.9548         76.5406       -0.0186248         144.519
0.596                   -1.38575        -173.686         -49.8919         74.7548         -49.8919         74.7547       -0.0188142         144.443
0.597                   -1.41553         -174.57         -49.8266         72.9752         -49.8266         72.9751       -0.0190066         144.367
0.598                   -1.44725        -175.462         -49.7588         71.2007         -49.7588         71.2006       -0.0192022          144.29
0.599                   -1.48097        -176.363         -49.6886         69.4302         -49.6886         69.4301       -0.0194007         144.213
0.6                     -1.51673        -177.274          -49.616         67.6627          -49.616         67.6626       -0.0196023         144.136
0.601                   -1.55461        -178.194         -49.5411         65.8971         -49.5411          65.897        -0.019807         144.059
0.602                   -1.59468        -179.122         -49.4639         64.1325         -49.4639         64.1324       -0.0200146         143.981
0.603                     -1.637         179.939         -49.3845         62.3679         -49.3845         62.3678       -0.0202252         143.903
0.604                   -1.68167         178.992          -49.303         60.6023         -49.3029         60.6022       -0.0204389         143.826
0.605                   -1.72876         178.036         -49.2193         58.8348         -49.2193         58.8347       -0.0206555         143.747
0.606                   -1.77839          177.07         -49.1337         57.0646         -49.1337         57.0644       -0.0208752         143.669
0.607                   -1.83064         176.095         -49.0461         55.2906         -49.0461         55.2905       -0.0210979         143.591
0.608                   -1.88564         175.111         -48.9566         53.5122         -48.9566         53.5121       -0.0213236         143.512
0.609                   -1.94349         174.118         -48.8654         51.7285         -48.8654         51.7284       -0.0215523         143.433
0.61                    -2.00433         173.116         -48.7725         49.9387         -48.7725         49.9386       -0.0217842         143.354
0.611                   -2.06828         172.106          -48.678         48.1421          -48.678          48.142       -0.0220191         143.275
0.612                    -2.1355         171.087          -48.582         46.3379          -48.582         46.3378       -0.0222571         143.195
0.613                   -2.20611          170.06         -48.4846         44.5254         -48.4846         44.5254       -0.0224983         143.116
0.614                   -2.28029         169.025         -48.3859          42.704         -48.3859          42.704       -0.0227426         143.036
0.615                    -2.3582         167.983         -48.2861         40.8731         -48.2861         40.8731       -0.0229901         142.955
0.616                   -2.44001         166.934         -48.1853          39.032         -48.1852          39.032       -0.0232409         142.875
0.617                    -2.5259         165.878         -48.0835         37.1802         -48.0835         37.1802        -0.023495         142.794
0.618                   -2.61605         164.816         -47.9809         35.3171         -47.9809         35.3171       -0.0237524         142.714
0.619                   -2.71068          163.75         -47.8776         33.4424         -47.8776         33.4424       -0.0240132         142.632
0.62                    -2.80997         162.679         -47.7739         31.5555         -47.7739         31.5555       -0.0242774         142.551
0.621                   -2.91414         161.605         -47.6697         29.6561         -47.6697         29.6562        -0.024545         142.469
0.622                    -3.0234         160.529         -47.5654         27.7439         -47.5653         27.7439       -0.0248162         142.388
0.623                   -3.13798         159.452         -47.4609         25.8185         -47.4609         25.8185        -0.025091         142.306
0.624                    -3.2581         158.376         -47.3565         23.8797         -47.3565         23.8798       -0.0253694         142.223
0.625                   -3.38398         157.302         -47.2523         21.9274         -47.2523         21.9275       -0.0256515         142.141
0.626                   -3.51586         156.232         -47.1486         19.9616         -47.1485         19.9616       -0.0259374         142.058
0.627                   -3.65396         155.168         -47.0453          17.982         -47.0453         17.9821        -0.026227         141.975
0.628                   -3.79851         154.112         -46.9428         15.9889         -46.9428          15.989       -0.0265206         141.891
0.629                   -3.94973         153.066         -46.8411         13.9822         -46.8411         13.9823       -0.0268182         141.808
0.63                    -4.10783         152.034         -46.7405         11.9622         -46.7405         11.9623       -0.0271197         141.724
0.631                     -4.273         151.019         -46.6411         9.92912         -46.6411         9.92925       -0.0274254          141.64
0.632                   -4.44543         150.023         -46.5431         7.88332          -46.543         7.88345       -0.0277353         141.555
0.633                   -4.62528          149.05         -46.4465         5.82521         -46.4465         5.82534       -0.0280494          141.47
0.634                   -4.81268         148.104         -46.3517         3.75527         -46.3517         3.75541       -0.0283679         141.385
0.635                   -5.00772          147.19         -46.2587         1.67409         -46.2587         1.67423       -0.0286909           141.3
0.636                   -5.21047         146.312         -46.1676       -0.417688         -46.1676       -0.417541       -0.0290183         141.214
0.637                   -5.42091         145.475         -46.0787        -2.51932         -46.0787        -2.51917       -0.0293504         141.128
0.638                   -5.63901         144.684         -45.9921        -4.63001         -45.9921        -4.62986       -0.0296872         141.042
0.639                   -5.86461         143.946         -45.9078        -6.74887         -45.9078        -6.74872       -0.0300288         140.956
0.64                    -6.09752         143.265          -45.826        -8.87496          -45.826        -8.87481       -0.0303753         140.869
0.641                   -6.33742         142.649         -45.7469        -11.0073         -45.7469        -11.0071       -0.0307268         140.782
0.642                   -6.58387         142.104         -45.6704        -13.1447         -45.6704        -13.1445       -0.0310834         140.694
0.643                   -6.83631         141.637         -45.5967        -15.2862         -45.5967         -15.286       -0.0314452         140.606
0.644                   -7.09403         141.255         -45.5258        -17.4305         -45.5258        -17.4303       -0.0318124         140.518
0.645                   -7.35615         140.966         -45.4578        -19.5765         -45.4578        -19.5763        -0.032185          140.43
0.646                   -7.62161         140.775         -45.3928        -21.7229         -45.3928        -21.7227       -0.0325632         140.341
0.647                   -7.88914          140.69         -45.3307        -23.8684         -45.3307        -23.8683       -0.0329471         140.252
0.648                   -8.15726         140.716         -45.2716        -26.0119         -45.2716        -26.0117       -0.0333367         140.162
0.649                   -8.42427         140.859         -45.2154         -28.152         -45.2154        -28.1518       -0.0337324         140.073
0.65                    -8.68824         141.123         -45.1622        -30.2875         -45.1622        -30.2873       -0.0341341         139.982
0.651                   -8.94705          141.51         -45.1119        -32.4171         -45.1119        -32.4169        -0.034542         139.892
0.652                   -9.19837         142.022         -45.0644        -34.5396         -45.0644        -34.5394       -0.0349563         139.801
0.653                   -9.43974         142.655         -45.0198        -36.6538         -45.0198        -36.6536        -0.035377         139.709
0.654                   -9.66863         143.406         -44.9778        -38.7585         -44.9778        -38.7584       -0.0358044         139.618
0.655                   -9.88249         144.268         -44.9385        -40.8527         -44.9385        -40.8526       -0.0362387         139.526
0.656                   -10.0789         145.231         -44.9017        -42.9354         -44.9017        -42.9352       -0.0366798         139.433
0.657                   -10.2555          146.28         -44.8673        -45.0054         -44.8673        -45.0052       -0.0371281          139.34
0.658                   -10.4105         147.399         -44.8352        -47.0618         -44.8352        -47.0617       -0.0375837         139.247
0.659                   -10.5422          148.57         -44.8053        -49.1039         -44.8053        -49.1037       -0.0380467         139.153
0.66                    -10.6498         149.773         -44.7774        -51.1308         -44.7774        -51.1306       -0.0385174         139.059
0.661                   -10.7327         150.985         -44.7513        -53.1418         -44.7514        -53.1416       -0.0389959         138.965
0.662                   -10.7911         152.186          -44.727        -55.1362         -44.7271         -55.136       -0.0394824          138.87
0.663                   -10.8257         153.354         -44.7043        -57.1134         -44.7044        -57.1132       -0.0399771         138.774
0.664                   -10.8376          154.47          -44.683         -59.073          -44.683        -59.0728       -0.0404801         138.679
0.665                   -10.8287         155.516          -44.663        -61.0146          -44.663        -61.0144       -0.0409918         138.582
0.666                   -10.8007          156.48          -44.644        -62.9377          -44.644        -62.9375       -0.0415124         138.486
0.667                   -10.7559         157.348          -44.626        -64.8422          -44.626        -64.8419       -0.0420419         138.389
0.668                   -10.6966         158.113         -44.6087        -66.7277         -44.6088        -66.7274       -0.0425807         138.291
0.669                   -10.6252         158.768         -44.5921        -68.5942         -44.5921        -68.5939        -0.043129         138.193
0.67                    -10.5439         159.311         -44.5759        -70.4415         -44.5759        -70.4413        -0.043687         138.094
0.671                   -10.4548          159.74           -44.56        -72.2697           -44.56        -72.2694        -0.044255         137.995
0.672                     -10.36         160.056         -44.5442        -74.0788         -44.5443        -74.0785       -0.0448333         137.895
0.673                   -10.2612         160.262         -44.5284        -75.8689         -44.5285        -75.8686        -0.045422         137.795
0.674                   -10.1601         160.359         -44.5125          -77.64         -44.5125        -77.6397       -0.0460215         137.695
0.675                   -10.0581         160.354         -44.4962        -79.3925         -44.4963        -79.3922        -0.046632         137.594
0.676                   -9.95636          160.25         -44.4795        -81.1266         -44.4796        -81.1263       -0.0472539         137.492
0.677                   -9.85597         160.052         -44.4622        -82.8425         -44.4623        -82.8422       -0.0478873          137.39
0.678                   -9.75779         159.765         -44.4442        -84.5405         -44.4443        -84.5402       -0.0485327         137.287
0.679                   -9.66259         159.394         -44.4254         -86.221         -44.4255        -86.2207       -0.0491904         137.184
0.68                    -9.57098         158.945         -44.4056        -87.8843         -44.4057         -87.884       -0.0498606          137.08
0.681                   -9.48345         158.421         -44.3847         -89.531         -44.3848        -89.5307       -0.0505437         136.975
0.682                   -9.40043         157.828         -44.3626        -91.1614         -44.3627        -91.1611         -0.05124          136.87
0.683                   -9.32224         157.169         -44.3392        -92.7759         -44.3393        -92.7756         -0.05195         136.764
0.684                   -9.24915         156.449         -44.3144        -94.3751         -44.3145        -94.3748       -0.0526739         136.658
0.685                   -9.18137         155.672         -44.2881        -95.9595         -44.2882        -95.9592       -0.0534122         136.551
0.686                   -9.11907         154.839         -44.2602        -97.5296         -44.2603        -97.5293       -0.0541652         136.444
0.687                   -9.06237         153.956         -44.2307        -99.0859         -44.2307        -99.0856       -0.0549334         136.336
0.688                   -9.01137         153.023         -44.1993        -100.629         -44.1994        -100.629       -0.0557172         136.227
0.689                   -8.96615         152.045         -44.1661        -102.159         -44.1662        -102.159       -0.0565169         136.117
0.69                    -8.92677         151.022          -44.131        -103.678          -44.131        -103.677       -0.0573331         136.007
0.691                   -8.89327         149.958         -44.0938        -105.185         -44.0939        -105.184       -0.0581662         135.896
0.692                    -8.8657         148.854         -44.0546        -106.681         -44.0546         -106.68       -0.0590167         135.785
0.693                   -8.84409         147.711         -44.0132        -108.166         -44.0133        -108.166        -0.059885         135.673
0.694                   -8.82847         146.531         -43.9697        -109.642         -43.9697        -109.642       -0.0607718          135.56
0.695                   -8.81887         145.315         -43.9239         -111.11         -43.9239        -111.109       -0.0616774         135.446
0.696                   -8.81534         144.064         -43.8757        -112.568         -43.8758        -112.568       -0.0626025         135.331