! TOUCHSTONE file generated by CST MICROWAVE STUDIO
! Date and time: Tue Nov 24 13:47:14 2020
! Project name: Scenario_1_Planar_Body_Tissue_Out_of_Line.cst
! Parameters = {dy1=328.7; L_HA=400; Ltissue=700; MT=2.54; Rad_Dielectric=30; Rad_Lower=7.3; Rad_Upper=30; Wtissue=700; a_HA=580; a_WG=246; b_HA=500; b_WG=121; c_HA=0; c_WG=187; d_feed=85; dx1=1039; h_feed=15; h_lower=18; h_upper=40; hfat=3; hgap=25; hmuscle=50; hskin=1.5}
! Header version: 2018
! Port assignment regex: !\s*Touchstone port\s*([0-9]+)\s*=\s*(CST MWS port|CST DS port)\s*([0-9]+|Zmin|Zmax)\s*\(\"(.*)\"\)(\s*mode\s*([0-9]+))?.*
! Touchstone port assignment:
! Touchstone port 1 = CST MWS port 1 ("")
! Touchstone port 2 = CST MWS port 2 ("")
# GHz S DB R 50
0.5                    -0.144482        -121.719         -66.0025        -32.9024         -66.0021        -32.9021      -0.00761926         151.159
0.501                  -0.147406        -122.151         -65.9067        -34.8484         -65.9063        -34.8475      -0.00768174         151.093
0.502                  -0.150448        -122.585         -65.8074         -36.815          -65.807        -36.8136      -0.00774501         151.028
0.503                  -0.153615        -123.023         -65.7045         -38.802          -65.704        -38.8002      -0.00780907         150.963
0.504                  -0.156916        -123.465         -65.5979        -40.8093         -65.5975        -40.8072      -0.00787394         150.897
0.505                  -0.160361        -123.909         -65.4878        -42.8367         -65.4873        -42.8342      -0.00793962         150.832
0.506                   -0.16396        -124.357         -65.3739        -44.8841         -65.3735        -44.8813      -0.00800612         150.766
0.507                  -0.167724        -124.808         -65.2563        -46.9512         -65.2559        -46.9482      -0.00807346         150.701
0.508                  -0.171666        -125.262         -65.1351         -49.038         -65.1347        -49.0348      -0.00814164         150.635
0.509                  -0.175797         -125.72         -65.0102        -51.1442         -65.0097        -51.1408      -0.00821067         150.569
0.51                   -0.180132        -126.182         -64.8815        -53.2696         -64.8811        -53.2661      -0.00828056         150.504
0.511                  -0.184684        -126.647         -64.7492        -55.4141         -64.7488        -55.4106      -0.00835133         150.438
0.512                   -0.18947        -127.115         -64.6133        -57.5777         -64.6128        -57.5741      -0.00842297         150.372
0.513                  -0.194507        -127.588         -64.4737          -59.76         -64.4732        -59.7565      -0.00849551         150.305
0.514                  -0.199813        -128.064         -64.3305        -61.9611         -64.3301        -61.9577      -0.00856894         150.239
0.515                  -0.205406        -128.544         -64.1838        -64.1808         -64.1833        -64.1775      -0.00864329         150.173
0.516                  -0.211309        -129.028         -64.0336         -66.419         -64.0331        -66.4159      -0.00871856         150.107
0.517                  -0.217543        -129.516           -63.88        -68.6757         -63.8795        -68.6728      -0.00879476          150.04
0.518                  -0.224132        -130.008         -63.7231        -70.9508         -63.7226        -70.9482       -0.0088719         149.974
0.519                  -0.231102        -130.504         -63.5629        -73.2442         -63.5624         -73.242      -0.00894999         149.907
0.52                    -0.23848        -131.004         -63.3996        -75.5561          -63.399        -75.5542      -0.00902904          149.84
0.521                  -0.246296        -131.508         -63.2332        -77.8864         -63.2326        -77.8849      -0.00910906         149.774
0.522                   -0.25458        -132.016         -63.0638        -80.2351         -63.0632         -80.234      -0.00919007         149.707
0.523                  -0.263366        -132.528         -62.8916        -82.6023          -62.891        -82.6017      -0.00927207          149.64
0.524                  -0.272689        -133.044         -62.7168        -84.9881         -62.7161         -84.988      -0.00935507         149.573
0.525                  -0.282585        -133.565         -62.5394        -87.3926         -62.5387         -87.393      -0.00943909         149.506
0.526                  -0.293096        -134.089         -62.3596        -89.8159         -62.3589        -89.8169      -0.00952413         149.438
0.527                  -0.304261        -134.617         -62.1775        -92.2581         -62.1768        -92.2597      -0.00961021         149.371
0.528                  -0.316123         -135.15         -61.9934        -94.7193         -61.9927        -94.7215      -0.00969734         149.304
0.529                  -0.328729        -135.686         -61.8074        -97.1997         -61.8067        -97.2026      -0.00978553         149.236
0.53                   -0.342124        -136.225         -61.6198        -99.6995          -61.619        -99.7031      -0.00987478         149.168
0.531                  -0.356358        -136.769         -61.4306        -102.219         -61.4298        -102.223      -0.00996511         149.101
0.532                  -0.371477        -137.315         -61.2401        -104.758         -61.2393        -104.763       -0.0100565         149.033
0.533                  -0.387533        -137.864         -61.0486        -107.316         -61.0477        -107.322       -0.0101491         148.965
0.534                  -0.404574        -138.416         -60.8562        -109.895         -60.8553        -109.901       -0.0102427         148.897
0.535                  -0.422649         -138.97         -60.6632        -112.493         -60.6623          -112.5       -0.0103375         148.829
0.536                  -0.441803        -139.527         -60.4699        -115.111          -60.469        -115.119       -0.0104334         148.761
0.537                  -0.462079        -140.084         -60.2764        -117.749         -60.2755        -117.758       -0.0105305         148.693
0.538                  -0.483517        -140.643         -60.0831        -120.407         -60.0822        -120.417       -0.0106287         148.624
0.539                  -0.506149        -141.201         -59.8902        -123.085         -59.8892        -123.095       -0.0107281         148.556
0.54                   -0.529999         -141.76         -59.6979        -125.782          -59.697        -125.793       -0.0108287         148.487
0.541                  -0.555083        -142.317         -59.5066        -128.499         -59.5057        -128.511       -0.0109304         148.418
0.542                  -0.581402        -142.873         -59.3165        -131.235         -59.3156        -131.247       -0.0110334          148.35
0.543                  -0.608945        -143.425         -59.1278        -133.989         -59.1269        -134.002       -0.0111376         148.281
0.544                  -0.637684        -143.975         -58.9409        -136.761         -58.9401        -136.775       -0.0112431         148.212
0.545                  -0.667572        -144.519         -58.7561         -139.55         -58.7552        -139.565       -0.0113498         148.143
0.546                  -0.698539        -145.059         -58.5735        -142.357         -58.5727        -142.372       -0.0114577         148.073
0.547                  -0.730494        -145.592         -58.3935        -145.179         -58.3927        -145.195        -0.011567         148.004
0.548                   -0.76332        -146.118         -58.2163        -148.016         -58.2155        -148.032       -0.0116775         147.935
0.549                  -0.796877        -146.635         -58.0421        -150.867         -58.0414        -150.883       -0.0117893         147.865
0.55                   -0.830997        -147.144         -57.8712         -153.73         -57.8706        -153.747       -0.0119024         147.796
0.551                  -0.865492        -147.644         -57.7038        -156.605         -57.7032        -156.623       -0.0120169         147.726
0.552                   -0.90015        -148.134         -57.5401         -159.49         -57.5396        -159.508       -0.0121327         147.656
0.553                  -0.934742        -148.614         -57.3803        -162.384         -57.3798        -162.402       -0.0122498         147.586
0.554                  -0.969027        -149.084         -57.2245        -165.284         -57.2241        -165.303       -0.0123683         147.516
0.555                   -1.00276        -149.545         -57.0729        -168.191         -57.0726        -168.209       -0.0124882         147.446
0.556                   -1.03568        -149.996         -56.9256          -171.1         -56.9254        -171.119       -0.0126095         147.375
0.557                   -1.06757        -150.439         -56.7827        -174.012         -56.7825         -174.03       -0.0127321         147.305
0.558                   -1.09818        -150.874         -56.6442        -176.924         -56.6441        -176.942       -0.0128562         147.234
0.559                   -1.12733        -151.304         -56.5103        -179.835         -56.5102        -179.852       -0.0129817         147.163
0.56                    -1.15483        -151.729         -56.3808         177.258         -56.3809         177.241       -0.0131087         147.093
0.561                   -1.18055         -152.15         -56.2559         174.356          -56.256          174.34       -0.0132371         147.022
0.562                    -1.2044        -152.571         -56.1354         171.461         -56.1356         171.445        -0.013367          146.95
0.563                    -1.2263        -152.992         -56.0193         168.575         -56.0196         168.559       -0.0134984         146.879
0.564                   -1.24625        -153.416         -55.9076         165.699         -55.9079         165.683       -0.0136312         146.808
0.565                   -1.26427        -153.844         -55.8001         162.834         -55.8004          162.82       -0.0137656         146.736
0.566                   -1.28042        -154.278         -55.6966         159.983         -55.6969         159.969       -0.0139014         146.665
0.567                   -1.29479        -154.721          -55.597         157.147         -55.5974         157.133       -0.0140388         146.593
0.568                   -1.30752        -155.172         -55.5012         154.326         -55.5016         154.313       -0.0141777         146.521
0.569                   -1.31875        -155.634          -55.409         151.522         -55.4094         151.511       -0.0143182         146.449
0.57                    -1.32866        -156.108         -55.3201         148.737         -55.3205         148.726       -0.0144602         146.377
0.571                   -1.33741        -156.595         -55.2344          145.97         -55.2348          145.96       -0.0146038         146.305
0.572                    -1.3452        -157.096         -55.1516         143.223          -55.152         143.214        -0.014749         146.232
0.573                   -1.35223        -157.611         -55.0715         140.497         -55.0719         140.489       -0.0148957          146.16
0.574                   -1.35868        -158.141         -54.9939         137.791         -54.9943         137.784        -0.015044         146.087
0.575                   -1.36474        -158.687         -54.9185         135.106         -54.9188           135.1       -0.0151939         146.014
0.576                   -1.37061        -159.248         -54.8451         132.443         -54.8454         132.438       -0.0153453         145.941
0.577                   -1.37645        -159.825         -54.7735         129.802         -54.7737         129.798       -0.0154984         145.868
0.578                   -1.38244        -160.417         -54.7034         127.182         -54.7035         127.179        -0.015653         145.795
0.579                   -1.38873        -161.025         -54.6345         124.583         -54.6346         124.581       -0.0158091         145.722
0.58                    -1.39549        -161.649         -54.5667         122.006         -54.5667         122.005       -0.0159668         145.648
0.581                   -1.40284        -162.288         -54.4998         119.449         -54.4997         119.449       -0.0161261         145.574
0.582                   -1.41094        -162.942         -54.4334         116.913         -54.4332         116.914       -0.0162868           145.5
0.583                    -1.4199        -163.611         -54.3674         114.397         -54.3672         114.398        -0.016449         145.426
0.584                   -1.42984        -164.296         -54.3017           111.9         -54.3013         111.902       -0.0166127         145.352
0.585                   -1.44089        -164.995         -54.2359         109.422         -54.2354         109.425       -0.0167777         145.278
0.586                   -1.45315        -165.708         -54.1699         106.962         -54.1694         106.966       -0.0169441         145.203
0.587                   -1.46673        -166.435         -54.1036         104.519         -54.1029         104.523       -0.0171118         145.129
0.588                   -1.48173        -167.176         -54.0368         102.092          -54.036         102.097       -0.0172808         145.054
0.589                   -1.49826        -167.931         -53.9693         99.6812         -53.9683         99.6866       -0.0174509         144.979
0.59                    -1.51642        -168.699         -53.9009         97.2845         -53.8998         97.2904       -0.0176221         144.904
0.591                    -1.5363         -169.48         -53.8316         94.9013         -53.8304         94.9076       -0.0177943         144.828
0.592                   -1.55801        -170.274         -53.7611         92.5306         -53.7599         92.5372       -0.0179675         144.753
0.593                   -1.58166        -171.081         -53.6895         90.1712         -53.6881         90.1781       -0.0181417         144.677
0.594                   -1.60735          -171.9         -53.6166         87.8222          -53.615         87.8294       -0.0183168         144.601
0.595                   -1.63518        -172.731         -53.5422         85.4824         -53.5406         85.4897        -0.018493         144.525
0.596                   -1.66527        -173.573         -53.4663         83.1507         -53.4646         83.1582       -0.0186705         144.449
0.597                   -1.69773        -174.427         -53.3889          80.826         -53.3871         80.8334       -0.0188494         144.373
0.598                   -1.73267        -175.292         -53.3099          78.507         -53.3079         78.5144       -0.0190302         144.296
0.599                   -1.77024        -176.167         -53.2291         76.1926         -53.2271            76.2       -0.0192134         144.219
0.6                     -1.81054        -177.053         -53.1467         73.8816         -53.1445         73.8889       -0.0193997         144.142
0.601                   -1.85371        -177.948         -53.0625         71.5729         -53.0602         71.5799       -0.0195898         144.065
0.602                   -1.89989        -178.852         -52.9765         69.2651         -52.9742         69.2719       -0.0197845         143.987
0.603                   -1.94922        -179.765         -52.8888         66.9572         -52.8864         66.9637       -0.0199844          143.91
0.604                   -2.00185         179.315         -52.7993         64.6479         -52.7968         64.6541       -0.0201901         143.832
0.605                   -2.05791         178.387          -52.708         62.3361         -52.7055         62.3419       -0.0204019         143.754
0.606                   -2.11758         177.454         -52.6151         60.0205         -52.6125         60.0259       -0.0206197         143.675
0.607                   -2.18098         176.515         -52.5205         57.7001         -52.5178          57.705       -0.0208433         143.597
0.608                   -2.24829         175.572         -52.4242         55.3736         -52.4215          55.378       -0.0210723         143.518
0.609                   -2.31966         174.626         -52.3264         53.0401         -52.3237         53.0439       -0.0213062         143.439
0.61                    -2.39523         173.679         -52.2272         50.6983         -52.2244         50.7016       -0.0215445          143.36
0.611                   -2.47516         172.732         -52.1266         48.3473         -52.1238           48.35       -0.0217866         143.281
0.612                   -2.55958         171.787         -52.0247         45.9861          -52.022         45.9882       -0.0220322         143.201
0.613                   -2.64864         170.845         -51.9218         43.6138          -51.919         43.6153       -0.0222809         143.122
0.614                   -2.74243         169.909         -51.8178         41.2295         -51.8151         41.2303       -0.0225325         143.042
0.615                   -2.84107         168.981          -51.713         38.8323         -51.7103         38.8326       -0.0227868         142.962
0.616                   -2.94463         168.063         -51.6076         36.4217         -51.6049         36.4214       -0.0230438         142.881
0.617                   -3.05317         167.158         -51.5016         33.9969          -51.499          33.996       -0.0233033         142.801
0.618                    -3.1667         166.269         -51.3953         31.5575         -51.3928          31.556       -0.0235654          142.72
0.619                    -3.2852         165.399         -51.2889         29.1031         -51.2865          29.101       -0.0238302         142.639
0.62                    -3.40862         164.551         -51.1826         26.6333         -51.1802         26.6307       -0.0240977         142.558
0.621                   -3.53682         163.728         -51.0766         24.1481         -51.0743          24.145       -0.0243679         142.476
0.622                   -3.66965         162.934         -50.9712         21.6474          -50.969         21.6438       -0.0246411         142.394
0.623                   -3.80685         162.173         -50.8665         19.1313         -50.8644         19.1274       -0.0249172         142.312
0.624                    -3.9481         161.448         -50.7627         16.6001         -50.7607         16.5959       -0.0251964          142.23
0.625                   -4.09302         160.763         -50.6602         14.0544         -50.6583         14.0499       -0.0254788         142.148
0.626                   -4.24111         160.121          -50.559         11.4947         -50.5573           11.49       -0.0257645         142.065
0.627                    -4.3918         159.526         -50.4595          8.9218         -50.4579         8.91688       -0.0260536         141.982
0.628                   -4.54443          158.98         -50.3618         6.33662         -50.3603         6.33159       -0.0263462         141.898
0.629                   -4.69822         158.487         -50.2662         3.74027         -50.2648          3.7352       -0.0266424         141.815
0.63                    -4.85233         158.048         -50.1727         1.13401         -50.1714         1.12894       -0.0269423         141.731
0.631                   -5.00583         157.665         -50.0816        -1.48079         -50.0804        -1.48579       -0.0272461         141.647
0.632                    -5.1577         157.338         -49.9929        -4.10262         -49.9919         -4.1075       -0.0275539         141.563
0.633                    -5.3069         157.068         -49.9069        -6.72985         -49.9059        -6.73456       -0.0278657         141.478
0.634                   -5.45231         156.853         -49.8235        -9.36079         -49.8227        -9.36529       -0.0281816         141.393
0.635                   -5.59283         156.691         -49.7428        -11.9937         -49.7421        -11.9979       -0.0285019         141.308
0.636                   -5.72738         156.579         -49.6649        -14.6266         -49.6643        -14.6306       -0.0288266         141.222
0.637                   -5.85492         156.511         -49.5898        -17.2579         -49.5892        -17.2616       -0.0291557         141.136
0.638                   -5.97448         156.483         -49.5173        -19.8856         -49.5169        -19.8889       -0.0294896          141.05
0.639                   -6.08524         156.487         -49.4475         -22.508         -49.4471         -22.511       -0.0298282         140.964
0.64                    -6.18651         156.517         -49.3803        -25.1233           -49.38        -25.1259       -0.0301716         140.877
0.641                   -6.27775         156.563         -49.3155        -27.7299         -49.3152        -27.7322       -0.0305201          140.79
0.642                   -6.35864         156.617         -49.2529        -30.3262         -49.2527        -30.3281       -0.0308737         140.703
0.643                   -6.42905         156.669         -49.1925        -32.9108         -49.1923        -32.9124       -0.0312326         140.615
0.644                   -6.48905         156.712         -49.1339        -35.4825         -49.1338        -35.4838       -0.0315969         140.527
0.645                   -6.53891         156.735         -49.0771          -38.04         -49.0769         -38.041       -0.0319668         140.438
0.646                   -6.57907         156.731         -49.0217        -40.5825         -49.0215        -40.5833       -0.0323423          140.35
0.647                   -6.61017         156.692         -48.9675        -43.1092         -48.9674        -43.1097       -0.0327237         140.261
0.648                   -6.63293          156.61         -48.9143        -45.6195         -48.9142        -45.6198        -0.033111         140.171
0.649                   -6.64823         156.481         -48.8618        -48.1129         -48.8617        -48.1131       -0.0335045         140.081
0.65                    -6.65699         156.298         -48.8098        -50.5893         -48.8097        -50.5893       -0.0339043         139.991
0.651                    -6.6602         156.058          -48.758        -53.0486         -48.7579        -53.0485       -0.0343106         139.901
0.652                   -6.65888         155.757         -48.7062        -55.4909         -48.7061        -55.4907       -0.0347235          139.81
0.653                   -6.65403         155.393         -48.6541        -57.9165          -48.654        -57.9163       -0.0351431         139.719
0.654                   -6.64666         154.965         -48.6014        -60.3258         -48.6013        -60.3256       -0.0355698         139.627
0.655                   -6.63773         154.471         -48.5481        -62.7195          -48.548        -62.7192       -0.0360036         139.535
0.656                   -6.62817         153.912         -48.4938        -65.0982         -48.4937         -65.098       -0.0364447         139.443
0.657                   -6.61885         153.287         -48.4384        -67.4628         -48.4383        -67.4626       -0.0368934          139.35
0.658                    -6.6106         152.598         -48.3816        -69.8142         -48.3815         -69.814       -0.0373498         139.257
0.659                   -6.60419         151.845         -48.3234        -72.1534         -48.3233        -72.1533       -0.0378141         139.163
0.66                    -6.60034          151.03         -48.2636        -74.4816         -48.2636        -74.4815       -0.0382865         139.069
0.661                   -6.59971         150.154         -48.2021        -76.7999          -48.202        -76.7999       -0.0387673         138.975
0.662                   -6.60293         149.219         -48.1388        -79.1096         -48.1387        -79.1096       -0.0392566          138.88
0.663                   -6.61058         148.227         -48.0735        -81.4118         -48.0734         -81.412       -0.0397546         138.784
0.664                   -6.62321         147.179         -48.0063        -83.7081         -48.0062        -83.7082       -0.0402617         138.689
0.665                   -6.64134         146.076          -47.937        -85.9995         -47.9369        -85.9997        -0.040778         138.593
0.666                   -6.66546         144.921         -47.8657        -88.2875         -47.8656        -88.2878       -0.0413037         138.496
0.667                   -6.69605         143.716         -47.7923        -90.5735         -47.7923        -90.5738       -0.0418391         138.399
0.668                   -6.73358         142.461         -47.7168        -92.8586         -47.7168         -92.859       -0.0423845         138.301
0.669                   -6.77849         141.159         -47.6393        -95.1443         -47.6394        -95.1446       -0.0429401         138.203
0.67                    -6.83126          139.81         -47.5599        -97.4317         -47.5599        -97.4321       -0.0435061         138.105
0.671                   -6.89233         138.417         -47.4785        -99.7221         -47.4785        -99.7225       -0.0440828         138.006
0.672                   -6.96219         136.981         -47.3953        -102.017         -47.3953        -102.017       -0.0446705         137.906
0.673                   -7.04131         135.504         -47.3103        -104.317         -47.3103        -104.317       -0.0452695         137.806
0.674                   -7.13021         133.986         -47.2236        -106.623         -47.2237        -106.623         -0.04588         137.706
0.675                    -7.2294         132.429         -47.1354        -108.937         -47.1355        -108.937       -0.0465023         137.605
0.676                   -7.33945         130.834         -47.0458        -111.259         -47.0459        -111.259       -0.0471367         137.503
0.677                   -7.46094         129.204          -46.955         -113.59         -46.9551        -113.591       -0.0477836         137.401
0.678                   -7.59451         127.539          -46.863        -115.932         -46.8631        -115.932       -0.0484431         137.298
0.679                   -7.74083         125.841         -46.7701        -118.284         -46.7702        -118.284       -0.0491157         137.195
0.68                    -7.90062         124.111         -46.6764        -120.647         -46.6765        -120.647       -0.0498016         137.092
0.681                   -8.07466         122.352         -46.5822        -123.022         -46.5823        -123.022       -0.0505011         136.987
0.682                   -8.26381         120.566         -46.4875        -125.409         -46.4876        -125.409       -0.0512146         136.882
0.683                   -8.46897         118.755         -46.3927        -127.809         -46.3927        -127.809       -0.0519424         136.777
0.684                   -8.69115          116.92         -46.2978        -130.221         -46.2979        -130.221       -0.0526849         136.671
0.685                   -8.93145         115.066         -46.2031        -132.646         -46.2032        -132.646       -0.0534423         136.564
0.686                   -9.19105         113.194         -46.1089        -135.083         -46.1089        -135.083       -0.0542151         136.457
0.687                   -9.47129         111.309         -46.0152        -137.532         -46.0153        -137.532       -0.0550036         136.349
0.688                   -9.77363         109.415         -45.9224        -139.994         -45.9224        -139.993       -0.0558082          136.24
0.689                   -10.0997         107.515         -45.8305        -142.466         -45.8306        -142.466       -0.0566292         136.131
0.69                    -10.4513         105.616         -45.7399         -144.95         -45.7399         -144.95        -0.057467         136.021
0.691                   -10.8305         103.724         -45.6506        -147.444         -45.6506        -147.444       -0.0583221         135.911
0.692                   -11.2397         101.846         -45.5628        -149.947         -45.5629        -149.947       -0.0591947           135.8
0.693                   -11.6814         99.9912         -45.4768        -152.458         -45.4768        -152.458       -0.0600854         135.688
0.694                   -12.1588         98.1698         -45.3926        -154.976         -45.3926        -154.976       -0.0609946         135.575
0.695                   -12.6755         96.3952         -45.3104        -157.501         -45.3104        -157.501       -0.0619226         135.462
0.696                   -13.2355         94.6835         -45.2303        -160.031         -45.2303        -160.031         -0.06287         135.348