! TOUCHSTONE file generated by CST MICROWAVE STUDIO
! Date and time: Mon Nov 30 08:08:34 2020
! Project name: Scenario_1_Planar_Body_Tissue_Out_of_Line.cst
! Parameters = {L_HA=400; Ltissue=700; MT=2.54; Rad_Dielectric=30; Rad_Lower=7.3; Rad_Upper=30; Wtissue=700; a_HA=580; a_WG=246; b_HA=500; b_WG=121; c_HA=0; c_WG=187; d_feed=85; dx1=866; dy1=346; h_feed=15; h_lower=18; h_upper=40; hfat=3; hgap=25; hmuscle=50; hskin=1.5}
! Header version: 2018
! Port assignment regex: !\s*Touchstone port\s*([0-9]+)\s*=\s*(CST MWS port|CST DS port)\s*([0-9]+|Zmin|Zmax)\s*\(\"(.*)\"\)(\s*mode\s*([0-9]+))?.*
! Touchstone port assignment:
! Touchstone port 1 = CST MWS port 1 ("")
! Touchstone port 2 = CST MWS port 2 ("")
# GHz S DB R 50
0.5                    -0.129874        -122.069         -65.6152         73.6096         -65.6133         73.6209      -0.00752802         151.156
0.501                  -0.139295        -122.469         -65.6105          71.997         -65.6061         72.0198      -0.00760804         151.091
0.502                  -0.148703        -122.872         -65.6031         70.3525         -65.5963         70.3874      -0.00768805         151.026
0.503                    -0.1581        -123.276          -65.593         68.6755         -65.5838         68.7231      -0.00776808          150.96
0.504                  -0.167488        -123.682         -65.5801         66.9655         -65.5683         67.0264      -0.00784816         150.895
0.505                  -0.176868        -124.091          -65.564         65.2221         -65.5498         65.2969       -0.0079283          150.83
0.506                  -0.186242        -124.502         -65.5445          63.445         -65.5279         63.5342      -0.00800853         150.764
0.507                  -0.195613        -124.914         -65.5216         61.6336         -65.5026         61.7379      -0.00808888         150.698
0.508                  -0.204981         -125.33          -65.495         59.7878         -65.4735         59.9078      -0.00816938         150.633
0.509                  -0.214349        -125.747         -65.4644         57.9071         -65.4406         58.0435      -0.00825004         150.567
0.51                   -0.223719        -126.166         -65.4296         55.9916         -65.4035         56.1448       -0.0083309         150.501
0.511                  -0.233093        -126.588         -65.3904         54.0409          -65.362         54.2115      -0.00841198         150.435
0.512                  -0.242474        -127.012         -65.3466          52.055          -65.316         52.2436       -0.0084933         150.369
0.513                  -0.251864        -127.439         -65.2979          50.034         -65.2651         50.2411      -0.00857489         150.303
0.514                  -0.261265        -127.868         -65.2441         47.9779         -65.2092         48.2039      -0.00865677         150.237
0.515                   -0.27068          -128.3          -65.185         45.8868          -65.148         46.1322      -0.00873897         150.171
0.516                  -0.280113        -128.734         -65.1203          43.761         -65.0813         44.0262      -0.00882151         150.105
0.517                  -0.289564         -129.17         -65.0498         41.6007         -65.0089          41.886      -0.00890442         150.038
0.518                  -0.299039         -129.61         -64.9732         39.4064         -64.9305          39.712      -0.00898772         149.972
0.519                  -0.308539        -130.051         -64.8904         37.1785          -64.846         37.5047      -0.00907143         149.905
0.52                   -0.318068        -130.496         -64.8011         34.9174         -64.7551         35.2643      -0.00915559         149.838
0.521                   -0.32763        -130.943         -64.7052         32.6238         -64.6576         32.9914      -0.00924021         149.772
0.522                  -0.337228        -131.393         -64.6024         30.2983         -64.5534         30.6865      -0.00932532         149.705
0.523                  -0.346865        -131.846         -64.4926         27.9416         -64.4422         28.3502      -0.00941095         149.638
0.524                  -0.356546        -132.302         -64.3755         25.5543          -64.324         25.9831      -0.00949711         149.571
0.525                  -0.366275         -132.76         -64.2512         23.1372         -64.1985         23.5858      -0.00958383         149.504
0.526                  -0.376056        -133.222         -64.1193         20.6909         -64.0657         21.1589      -0.00967114         149.437
0.527                  -0.385893        -133.687         -63.9799         18.2163         -63.9254         18.7029      -0.00975906         149.369
0.528                  -0.395792        -134.154         -63.8329         15.7139         -63.7776         16.2184      -0.00984762         149.302
0.529                  -0.405758        -134.625         -63.6781         13.1844         -63.6221          13.706      -0.00993683         149.234
0.53                   -0.415795        -135.099         -63.5157         10.6284          -63.459         11.1659       -0.0100267         149.167
0.531                  -0.425909        -135.576         -63.3454         8.04628         -63.2883         8.59869       -0.0101173         149.099
0.532                  -0.436106        -136.057         -63.1675         5.43845         -63.1099         6.00441       -0.0102087         149.031
0.533                  -0.446392        -136.541         -62.9819         2.80512         -62.9239         3.38319       -0.0103008         148.963
0.534                  -0.456773        -137.029         -62.7886        0.146362         -62.7303        0.734958       -0.0103936         148.895
0.535                  -0.467257        -137.519         -62.5879        -2.53793         -62.5294        -1.94055       -0.0104873         148.827
0.536                  -0.477849        -138.014         -62.3797        -5.24807         -62.3211        -4.64378       -0.0105818         148.759
0.537                  -0.488559        -138.512         -62.1644        -7.98457         -62.1056        -7.37542       -0.0106772         148.691
0.538                  -0.499393        -139.014         -61.9421        -10.7482         -61.8832        -10.1364       -0.0107734         148.623
0.539                   -0.51036         -139.52         -61.7129        -13.5399          -61.654        -12.9278       -0.0108706         148.554
0.54                   -0.521469        -140.029         -61.4772        -16.3611         -61.4184        -15.7512       -0.0109686         148.486
0.541                  -0.532728        -140.542         -61.2353        -19.2133         -61.1765        -18.6083       -0.0110677         148.417
0.542                  -0.544149         -141.06         -60.9874        -22.0984         -60.9289        -21.5012       -0.0111677         148.348
0.543                   -0.55574        -141.581         -60.7341        -25.0185         -60.6758        -24.4322       -0.0112687         148.279
0.544                  -0.567514        -142.107         -60.4756        -27.9762         -60.4178         -27.404       -0.0113707          148.21
0.545                  -0.579481        -142.637         -60.2126        -30.9743         -60.1553        -30.4196       -0.0114737         148.141
0.546                  -0.591654        -143.171         -59.9455         -34.016         -59.8889        -33.4824       -0.0115779         148.072
0.547                  -0.604045         -143.71          -59.675        -37.1047         -59.6194         -36.596       -0.0116831         148.002
0.548                  -0.616668        -144.253         -59.4018        -40.2442         -59.3474        -39.7642       -0.0117895         147.933
0.549                  -0.629539          -144.8         -59.1267        -43.4385          -59.074        -42.9913        -0.011897         147.863
0.55                   -0.642671        -145.352         -58.8506        -46.6918            -58.8        -46.2814       -0.0120057         147.794
0.551                  -0.656082        -145.909         -58.5746        -50.0084         -58.5267         -49.639       -0.0121156         147.724
0.552                  -0.669788        -146.471         -58.2999        -53.3928         -58.2554        -53.0683       -0.0122267         147.654
0.553                  -0.683807        -147.038         -58.0277        -56.8493         -57.9875        -56.5734        -0.012339         147.584
0.554                   -0.69816         -147.61         -57.7597        -60.3818         -57.7248        -60.1579       -0.0124526         147.514
0.555                  -0.712866        -148.187         -57.4976        -63.9941         -57.4691        -63.8249       -0.0125675         147.444
0.556                  -0.727947        -148.769         -57.2433         -67.689         -57.2227        -67.5762       -0.0126838         147.373
0.557                  -0.743427        -149.357         -56.9991        -71.4683         -56.9878        -71.4125       -0.0128014         147.303
0.558                   -0.75933         -149.95         -56.7672        -75.3325         -56.7671        -75.3325       -0.0129203         147.232
0.559                  -0.775682        -150.548         -56.5504        -79.2801         -56.5634        -79.3326       -0.0130407         147.161
0.56                   -0.792511        -151.152         -56.3514        -83.3072         -56.3795        -83.4064       -0.0131625          147.09
0.561                  -0.809846        -151.762         -56.1732        -87.4072         -56.2186        -87.5443       -0.0132857         147.019
0.562                  -0.827718        -152.377          -56.019          -91.57         -56.0838        -91.7325       -0.0134105         146.948
0.563                  -0.846162        -152.999         -55.8917        -95.7819         -55.9778        -95.9535       -0.0135367         146.877
0.564                  -0.865211        -153.626         -55.7944        -100.025         -55.9036        -100.185       -0.0136644         146.806
0.565                  -0.884904        -154.259         -55.7299        -104.276         -55.8633        -104.401       -0.0137937         146.734
0.566                  -0.905281        -154.899         -55.7005        -108.509         -55.8588         -108.57       -0.0139246         146.662
0.567                  -0.926384        -155.545          -55.708        -112.692         -55.8911        -112.659        -0.014057         146.591
0.568                  -0.948258        -156.197         -55.7536        -116.791         -55.9604         -116.63       -0.0141911         146.519
0.569                  -0.970952        -156.855         -55.8377        -120.767         -56.0661        -120.444       -0.0143269         146.447
0.57                   -0.994515         -157.52         -55.9596         -124.58         -56.2065        -124.062       -0.0144643         146.374
0.571                     -1.019        -158.192         -56.1178        -128.187         -56.3785        -127.442       -0.0146035         146.302
0.572                   -1.04447        -158.869         -56.3094        -131.547         -56.5784        -130.546       -0.0147443          146.23
0.573                   -1.07098        -159.554         -56.5306        -134.616         -56.8009        -133.337        -0.014887         146.157
0.574                    -1.0986        -160.244         -56.7761        -137.354         -57.0397        -135.783       -0.0150314         146.084
0.575                   -1.12739        -160.942         -57.0391        -139.723          -57.287        -137.856       -0.0151776         146.011
0.576                   -1.15743        -161.645         -57.3115         -141.69         -57.5339        -139.536       -0.0153257         145.938
0.577                   -1.18879        -162.355         -57.5834        -143.231         -57.7704        -140.813       -0.0154756         145.865
0.578                   -1.22156        -163.071         -57.8434        -144.331         -57.9853        -141.691       -0.0156275         145.792
0.579                   -1.25581        -163.794         -58.0787        -144.992         -58.1671        -142.191       -0.0157812         145.718
0.58                    -1.29163        -164.522         -58.2758        -145.237         -58.3044        -142.351       -0.0159369         145.645
0.581                   -1.32912        -165.256         -58.4213        -145.113         -58.3871        -142.233       -0.0160946         145.571
0.582                   -1.36838        -165.996         -58.5033        -144.692         -58.4073        -141.913       -0.0162542         145.497
0.583                   -1.40949         -166.74         -58.5128        -144.071         -58.3604        -141.483       -0.0164159         145.423
0.584                   -1.45258        -167.489         -58.4454         -143.36         -58.2456        -141.039       -0.0165796         145.348
0.585                   -1.49773        -168.243         -58.3014        -142.675         -58.0659        -140.674       -0.0167454         145.274
0.586                   -1.54507            -169         -58.0863        -142.121         -57.8278        -140.466       -0.0169133         145.199
0.587                    -1.5947         -169.76         -57.8089        -141.788           -57.54         -140.48       -0.0170834         145.124
0.588                   -1.64672        -170.523          -57.481        -141.737         -57.2125        -140.756       -0.0172556          145.05
0.589                   -1.70126        -171.287         -57.1149        -142.008         -56.8555         -141.32       -0.0174299         144.974
0.59                    -1.75842        -172.051         -56.7226        -142.614         -56.4786        -142.178       -0.0176065         144.899
0.591                   -1.81829        -172.816         -56.3149        -143.554         -56.0906        -143.325       -0.0177853         144.824
0.592                   -1.88098        -173.578         -55.9011        -144.811         -55.6988        -144.748       -0.0179664         144.748
0.593                   -1.94656        -174.337         -55.4889        -146.363         -55.3092        -146.425       -0.0181498         144.672
0.594                   -2.01513        -175.092         -55.0841         -148.18         -54.9269        -148.334       -0.0183354         144.596
0.595                   -2.08672         -175.84         -54.6914        -150.234         -54.5556        -150.451       -0.0185234          144.52
0.596                   -2.16138         -176.58         -54.3142        -152.492         -54.1983        -152.749       -0.0187138         144.444
0.597                   -2.23912         -177.31         -53.9548        -154.927          -53.857        -155.205       -0.0189066         144.367
0.598                   -2.31992        -178.028         -53.6149        -157.511         -53.5333        -157.794       -0.0191018         144.291
0.599                   -2.40373        -178.731         -53.2953        -160.218          -53.228        -160.496       -0.0192995         144.214
0.6                     -2.49044        -179.418         -52.9965        -163.023         -52.9415        -163.288       -0.0194996         144.137
0.601                    -2.5799         179.915         -52.7184        -165.907         -52.6741        -166.153       -0.0197023         144.059
0.602                   -2.67193         179.269         -52.4607        -168.849         -52.4254        -169.073       -0.0199074         143.982
0.603                   -2.76626         178.648         -52.2228        -171.833          -52.195        -172.032       -0.0201152         143.904
0.604                   -2.86257         178.053         -52.0037        -174.842         -51.9822        -175.016       -0.0203256         143.826
0.605                   -2.96046         177.487         -51.8026        -177.865         -51.7862        -178.014       -0.0205386         143.748
0.606                   -3.05947         176.953         -51.6183         179.111          -51.606         178.986       -0.0207542          143.67
0.607                   -3.15906         176.451         -51.4496         176.096         -51.4406         175.992       -0.0209726         143.592
0.608                   -3.25866         175.984         -51.2954         173.096         -51.2889         173.013       -0.0211937         143.513
0.609                   -3.35758         175.552         -51.1544         170.119         -51.1499         170.055       -0.0214176         143.434
0.61                    -3.45512         175.156         -51.0254         167.171         -51.0224         167.123       -0.0216443         143.355
0.611                   -3.55054         174.795         -50.9072         164.254         -50.9053         164.221       -0.0218739         143.276
0.612                   -3.64307         174.468         -50.7987         161.374         -50.7976         161.353       -0.0221064         143.196
0.613                   -3.73194         174.173         -50.6988          158.53         -50.6982         158.521       -0.0223418         143.116
0.614                   -3.81641         173.908         -50.6064         155.727         -50.6062         155.726       -0.0225802         143.036
0.615                   -3.89579         173.668         -50.5207         152.963         -50.5207          152.97       -0.0228217         142.956
0.616                   -3.96946          173.45         -50.4407         150.239         -50.4408         150.252       -0.0230663         142.876
0.617                   -4.03689         173.249         -50.3656         147.555         -50.3657         147.573        -0.023314         142.795
0.618                   -4.09769         173.058         -50.2946          144.91         -50.2947         144.932        -0.023565         142.714
0.619                   -4.15157         172.872         -50.2271         142.304          -50.227         142.329       -0.0238193         142.633
0.62                    -4.19839         172.685         -50.1623         139.735         -50.1622         139.762        -0.024077         142.552
0.621                   -4.23817          172.49         -50.0998         137.202         -50.0996          137.23       -0.0243381          142.47
0.622                   -4.27106         172.282          -50.039         134.702         -50.0386         134.731       -0.0246027         142.388
0.623                   -4.29734         172.053         -49.9794         132.235          -49.979         132.264        -0.024871         142.306
0.624                   -4.31742         171.799         -49.9206         129.799         -49.9201         129.828       -0.0251429         142.224
0.625                    -4.3318         171.515         -49.8623         127.392         -49.8617         127.421       -0.0254186         142.141
0.626                   -4.34106         171.197         -49.8041         125.013         -49.8035          125.04       -0.0256983         142.058
0.627                   -4.34584          170.84         -49.7458         122.658          -49.745         122.685       -0.0259819         141.975
0.628                   -4.34683         170.443         -49.6869         120.327         -49.6862         120.353       -0.0262697         141.891
0.629                   -4.34473         170.002         -49.6274         118.018         -49.6266         118.042       -0.0265616         141.808
0.63                    -4.34025         169.516          -49.567         115.729         -49.5662         115.752        -0.026858         141.724
0.631                   -4.33406         168.984         -49.5056         113.458         -49.5047          113.48       -0.0271587         141.639
0.632                   -4.32685         168.405         -49.4429         111.204         -49.4421         111.224       -0.0274641         141.555
0.633                   -4.31925          167.78         -49.3789         108.965         -49.3781         108.983       -0.0277743          141.47
0.634                   -4.31185         167.108         -49.3135         106.739         -49.3126         106.756       -0.0280892         141.385
0.635                   -4.30523          166.39         -49.2464         104.524         -49.2457          104.54       -0.0284092           141.3
0.636                   -4.29988         165.628         -49.1778          102.32          -49.177         102.335       -0.0287344         141.214
0.637                    -4.2963         164.821         -49.1075         100.125         -49.1068         100.138       -0.0290648         141.128
0.638                   -4.29493         163.971         -49.0354         97.9367         -49.0347         97.9484       -0.0294006         141.041
0.639                   -4.29615          163.08         -48.9616         95.7545          -48.961         95.7649        -0.029742         140.955
0.64                    -4.30035         162.148          -48.886         93.5767         -48.8854         93.5861       -0.0300892         140.868
0.641                   -4.30785         161.177         -48.8086         91.4022         -48.8081         91.4104       -0.0304422         140.781
0.642                   -4.31899         160.167         -48.7295         89.2296         -48.7289         89.2369       -0.0308012         140.693
0.643                   -4.33406         159.121         -48.6485         87.0578          -48.648         87.0641       -0.0311664         140.605
0.644                   -4.35332          158.04         -48.5658         84.8855         -48.5654          84.891       -0.0315379         140.517
0.645                   -4.37706         156.923         -48.4814         82.7117          -48.481         82.7164       -0.0319158         140.428
0.646                   -4.40553         155.773         -48.3954         80.5353          -48.395         80.5392       -0.0323004         140.339
0.647                   -4.43897         154.591         -48.3077         78.3552         -48.3074         78.3584       -0.0326916          140.25
0.648                   -4.47765         153.378         -48.2185         76.1704         -48.2182          76.173       -0.0330898          140.16
0.649                    -4.5218         152.134         -48.1278           73.98         -48.1275          73.982       -0.0334949          140.07
0.65                     -4.5717          150.86         -48.0357         71.7831         -48.0354         71.7846       -0.0339072          139.98
0.651                   -4.62758         149.558         -47.9423         69.5789         -47.9421         69.5799       -0.0343267         139.889
0.652                   -4.68974         148.227         -47.8477         67.3664         -47.8475         67.3671       -0.0347537         139.798
0.653                   -4.75844          146.87          -47.752         65.1451         -47.7518         65.1454       -0.0351882         139.707
0.654                   -4.83398         145.487         -47.6553         62.9142         -47.6552         62.9142       -0.0356304         139.615
0.655                   -4.91667         144.078         -47.5577         60.6731         -47.5576         60.6728       -0.0360805         139.523
0.656                   -5.00683         142.646         -47.4595         58.4213         -47.4593         58.4207       -0.0365384          139.43
0.657                    -5.1048          141.19         -47.3606         56.1581         -47.3604         56.1573       -0.0370045         139.337
0.658                   -5.21095         139.711         -47.2612         53.8832         -47.2611         53.8823       -0.0374788         139.244
0.659                   -5.32567         138.212         -47.1615         51.5963         -47.1614         51.5952       -0.0379614          139.15
0.66                    -5.44934         136.692         -47.0616          49.297         -47.0616         49.2958       -0.0384526         139.056
0.661                   -5.58242         135.155         -46.9618         46.9852         -46.9617         46.9839       -0.0389524         138.961
0.662                   -5.72535         133.599         -46.8621         44.6607          -46.862         44.6593        -0.039461         138.866
0.663                   -5.87861         132.029         -46.7627         42.3234         -46.7626          42.322       -0.0399785         138.771
0.664                   -6.04273         130.445         -46.6637         39.9735         -46.6637         39.9721       -0.0405052         138.675
0.665                   -6.21824         128.849         -46.5654         37.6111         -46.5654         37.6097       -0.0410411         138.578
0.666                   -6.40572         127.244         -46.4679         35.2364         -46.4679          35.235       -0.0415864         138.482
0.667                   -6.60577         125.633         -46.3714         32.8497         -46.3714         32.8484       -0.0421413         138.384
0.668                   -6.81904         124.018          -46.276         30.4514          -46.276         30.4502        -0.042706         138.287
0.669                   -7.04621         122.402         -46.1819         28.0422         -46.1819          28.041       -0.0432807         138.189
0.67                    -7.28801          120.79         -46.0893         25.6225         -46.0893         25.6213       -0.0438655          138.09
0.671                   -7.54521         119.185         -45.9982          23.193         -45.9982          23.192       -0.0444606         137.991
0.672                   -7.81861         117.592         -45.9089         20.7547         -45.9088         20.7537       -0.0450663         137.891
0.673                   -8.10908         116.016         -45.8214         18.3082         -45.8214         18.3074       -0.0456828         137.791
0.674                   -8.41755         114.464         -45.7359         15.8546         -45.7358          15.854       -0.0463102          137.69
0.675                   -8.74499         112.942         -45.6524          13.395         -45.6524         13.3944       -0.0469488         137.589
0.676                   -9.09245         111.458         -45.5712         10.9303         -45.5712         10.9299       -0.0475988         137.487
0.677                   -9.46103         110.021         -45.4922          8.4618         -45.4922         8.46154       -0.0482605         137.385
0.678                   -9.85192         108.642         -45.4155         5.99061         -45.4155         5.99051       -0.0489342         137.282
0.679                   -10.2664         107.332         -45.3412         3.51801         -45.3412         3.51806         -0.04962         137.179
0.68                    -10.7057         106.105         -45.2693         1.04524         -45.2693         1.04545       -0.0503184         137.075
0.681                   -11.1714         104.979         -45.1998         -1.4264         -45.1998        -1.42603       -0.0510294         136.971
0.682                   -11.6648         103.972         -45.1328        -3.89562         -45.1328        -3.89509       -0.0517536         136.866
0.683                   -12.1875         103.108         -45.0681        -6.36114         -45.0682        -6.36044       -0.0524911          136.76
0.684                   -12.7408         102.414         -45.0059        -8.82168         -45.0059        -8.82082       -0.0532423         136.654
0.685                   -13.3262         101.926          -44.946         -11.276          -44.946         -11.275       -0.0540075         136.547
0.686                   -13.9448         101.682         -44.8883        -13.7229         -44.8883        -13.7217        -0.054787          136.44
0.687                    -14.597         101.735         -44.8328        -16.1612         -44.8329        -16.1598       -0.0555813         136.332
0.688                   -15.2826         102.144         -44.7794        -18.5897         -44.7795        -18.5882       -0.0563906         136.223
0.689                   -15.9996         102.985          -44.728        -21.0075         -44.7281        -21.0059       -0.0572155         136.113
0.69                    -16.7435         104.346         -44.6785        -23.4136         -44.6785        -23.4118       -0.0580561         136.003
0.691                    -17.506         106.329         -44.6307         -25.807         -44.6307        -25.8052       -0.0589131         135.893
0.692                   -18.2725         109.048         -44.5845         -28.187         -44.5845         -28.185       -0.0597868         135.781
0.693                   -19.0204         112.611         -44.5397        -30.5528         -44.5397        -30.5507       -0.0606776         135.669
0.694                   -19.7162         117.095         -44.4962        -32.9037         -44.4963        -32.9015        -0.061586         135.556
0.695                   -20.3164         122.506         -44.4539        -35.2393         -44.4539         -35.237       -0.0625125         135.443
0.696                   -20.7721         128.722         -44.4125        -37.5589         -44.4126        -37.5566       -0.0634576         135.328