! TOUCHSTONE file generated by CST MICROWAVE STUDIO
! Date and time: Thu Feb 11 19:31:15 2021
! Project name: Scenario_1_Planar_Body_Tissue_Out_of_Line.cst
! Parameters = {L_HA=400; Ltissue=1000; MT=2.54; Rad_Dielectric=30; Rad_Lower=7.3; Rad_Upper=30; Wtissue=1000; a_HA=580; a_WG=246; b_HA=500; b_WG=121; c_HA=0; c_WG=187; d_feed=85; dx1=346; dy1=-294.1; h_feed=15; h_lower=18; h_upper=40; hfat=3; hgap=25; hmuscle=50; hskin=1.5}
! Header version: 2018
! Port assignment regex: !\s*Touchstone port\s*([0-9]+)\s*=\s*(CST MWS port|CST DS port)\s*([0-9]+|Zmin|Zmax)\s*\(\"(.*)\"\)(\s*mode\s*([0-9]+))?.*
! Touchstone port assignment:
! Touchstone port 1 = CST MWS port 1 ("")
! Touchstone port 2 = CST MWS port 2 ("")
# GHz S DB R 50
0.5                    -0.260519        -121.682         -58.5075        -1.44427         -58.5073        -1.44325      -0.00811069          151.13
0.501                  -0.261887        -122.063          -58.361        -3.93533          -58.361        -3.93503      -0.00816719         151.065
0.502                  -0.263262        -122.447         -58.2236        -6.43504         -58.2238        -6.43533      -0.00822433         150.999
0.503                  -0.264646        -122.835         -58.0953        -8.93878         -58.0958        -8.93953      -0.00828211         150.934
0.504                  -0.266042        -123.225         -57.9761        -11.4419         -57.9767         -11.443      -0.00834055         150.869
0.505                  -0.267452        -123.619         -57.8659        -13.9399         -57.8667        -13.9412      -0.00839966         150.803
0.506                  -0.268879        -124.016         -57.7644        -16.4282         -57.7654        -16.4296      -0.00845944         150.737
0.507                  -0.270324        -124.416         -57.6715        -18.9026         -57.6726        -18.9041       -0.0085199         150.672
0.508                   -0.27179        -124.819         -57.5868        -21.3592         -57.5881        -21.3606      -0.00858106         150.606
0.509                  -0.273281        -125.226           -57.51        -23.7941         -57.5114        -23.7953      -0.00864292          150.54
0.51                   -0.274798        -125.636         -57.4406        -26.2039         -57.4422        -26.2049      -0.00870549         150.474
0.511                  -0.276345        -126.049         -57.3783        -28.5856           -57.38        -28.5864      -0.00876879         150.408
0.512                  -0.277924        -126.466         -57.3225        -30.9364         -57.3243        -30.9368      -0.00883281         150.342
0.513                  -0.279539        -126.887         -57.2728        -33.2539         -57.2746        -33.2541      -0.00889758         150.276
0.514                  -0.281193         -127.31         -57.2286        -35.5363         -57.2305         -35.536       -0.0089631          150.21
0.515                  -0.282889        -127.738         -57.1894        -37.7818         -57.1914        -37.7812      -0.00902939         150.143
0.516                   -0.28463        -128.169         -57.1547        -39.9893         -57.1567        -39.9883      -0.00909644         150.077
0.517                   -0.28642        -128.603          -57.124        -42.1577         -57.1261        -42.1563      -0.00916429         150.011
0.518                  -0.288263        -129.042         -57.0968        -44.2866         -57.0989        -44.2847      -0.00923293         149.944
0.519                  -0.290162        -129.484         -57.0726        -46.3754         -57.0746        -46.3732      -0.00930237         149.877
0.52                   -0.292121        -129.929         -57.0508        -48.4243         -57.0529        -48.4217      -0.00937264         149.811
0.521                  -0.294144        -130.379         -57.0312        -50.4332         -57.0332        -50.4303      -0.00944373         149.744
0.522                  -0.296236        -130.832         -57.0131        -52.4027         -57.0152        -52.3994      -0.00951567         149.677
0.523                  -0.298402         -131.29         -56.9963        -54.3332         -56.9983        -54.3296      -0.00958847          149.61
0.524                  -0.300644        -131.751         -56.9803        -56.2254         -56.9823        -56.2216      -0.00966213         149.543
0.525                  -0.302969        -132.216         -56.9648        -58.0802         -56.9667        -58.0761      -0.00973666         149.475
0.526                  -0.305381        -132.686         -56.9494        -59.8984         -56.9513        -59.8941      -0.00981209         149.408
0.527                  -0.307886        -133.159         -56.9339        -61.6812         -56.9357        -61.6767      -0.00988843         149.341
0.528                  -0.310489        -133.637         -56.9179        -63.4295         -56.9197        -63.4248      -0.00996568         149.273
0.529                  -0.313195        -134.119         -56.9012        -65.1446         -56.9029        -65.1397       -0.0100439         149.206
0.53                   -0.316011        -134.606         -56.8835        -66.8276         -56.8852        -66.8226        -0.010123         149.138
0.531                  -0.318942        -135.097         -56.8646        -68.4796         -56.8663        -68.4745       -0.0102031          149.07
0.532                  -0.321995        -135.592         -56.8444         -70.102          -56.846        -70.0968       -0.0102842         149.002
0.533                  -0.325177        -136.092         -56.8227        -71.6959         -56.8242        -71.6907       -0.0103662         148.934
0.534                  -0.328495        -136.596         -56.7992        -73.2626         -56.8006        -73.2573       -0.0104493         148.866
0.535                  -0.331956        -137.105         -56.7738        -74.8032         -56.7752        -74.7979       -0.0105333         148.798
0.536                  -0.335568        -137.619         -56.7464         -76.319         -56.7478        -76.3137       -0.0106184          148.73
0.537                  -0.339339        -138.138         -56.7169        -77.8111         -56.7182        -77.8059       -0.0107046         148.661
0.538                  -0.343278        -138.662         -56.6851        -79.2807         -56.6864        -79.2755       -0.0107918         148.593
0.539                  -0.347393        -139.191          -56.651         -80.729         -56.6522        -80.7238       -0.0108801         148.524
0.54                   -0.351694        -139.725         -56.6145         -82.157         -56.6156        -82.1519       -0.0109695         148.456
0.541                  -0.356191        -140.264         -56.5755        -83.5659         -56.5765        -83.5608         -0.01106         148.387
0.542                  -0.360894        -140.808         -56.5338        -84.9566         -56.5349        -84.9516       -0.0111516         148.318
0.543                  -0.365814        -141.358         -56.4896        -86.3302         -56.4905        -86.3254       -0.0112444         148.249
0.544                  -0.370963        -141.913         -56.4426        -87.6878         -56.4435        -87.6831       -0.0113383          148.18
0.545                  -0.376353        -142.474         -56.3929        -89.0303         -56.3938        -89.0257       -0.0114334         148.111
0.546                  -0.381996        -143.041         -56.3404        -90.3587         -56.3412        -90.3541       -0.0115298         148.041
0.547                  -0.387906        -143.614         -56.2851        -91.6738         -56.2858        -91.6694       -0.0116273         147.972
0.548                  -0.394098        -144.192         -56.2269        -92.9766         -56.2276        -92.9723       -0.0117261         147.902
0.549                  -0.400587        -144.777         -56.1658        -94.2679         -56.1664        -94.2638       -0.0118261         147.833
0.55                   -0.407387        -145.368         -56.1017        -95.5487         -56.1024        -95.5447       -0.0119274         147.763
0.551                  -0.414518        -145.965         -56.0348        -96.8197         -56.0353        -96.8159         -0.01203         147.693
0.552                  -0.421995        -146.568         -55.9648        -98.0818         -55.9653        -98.0781        -0.012134         147.623
0.553                  -0.429839        -147.179         -55.8918        -99.3358         -55.8923        -99.3322       -0.0122392         147.553
0.554                  -0.438069        -147.796         -55.8159        -100.582         -55.8163        -100.579       -0.0123458         147.482
0.555                  -0.446707         -148.42         -55.7369        -101.823         -55.7373        -101.819       -0.0124538         147.412
0.556                  -0.455775        -149.051         -55.6549        -103.057         -55.6553        -103.054       -0.0125632         147.342
0.557                  -0.465297        -149.689         -55.5698        -104.286         -55.5702        -104.283       -0.0126741         147.271
0.558                  -0.475299        -150.335         -55.4817        -105.511          -55.482        -105.508       -0.0127863           147.2
0.559                  -0.485808        -150.988         -55.3905        -106.732         -55.3908        -106.729       -0.0129001         147.129
0.56                   -0.496854        -151.649         -55.2963         -107.95         -55.2965        -107.948       -0.0130153         147.058
0.561                  -0.508466        -152.317         -55.1989        -109.166         -55.1991        -109.164       -0.0131321         146.987
0.562                  -0.520678        -152.994         -55.0985        -110.381         -55.0987        -110.379       -0.0132504         146.916
0.563                  -0.533525         -153.68          -54.995        -111.595         -54.9952        -111.593       -0.0133702         146.845
0.564                  -0.547044        -154.373         -54.8884        -112.809         -54.8885        -112.807       -0.0134917         146.773
0.565                  -0.561275        -155.076         -54.7787        -114.024         -54.7788        -114.022       -0.0136147         146.701
0.566                  -0.576262        -155.787         -54.6659         -115.24          -54.666        -115.238       -0.0137395          146.63
0.567                  -0.592049        -156.507           -54.55        -116.458         -54.5501        -116.456       -0.0138659         146.558
0.568                  -0.608685        -157.237          -54.431        -117.678         -54.4311        -117.677       -0.0139939         146.486
0.569                  -0.626224        -157.977         -54.3089        -118.903          -54.309        -118.901       -0.0141238         146.413
0.57                   -0.644721        -158.726         -54.1837        -120.132         -54.1838         -120.13       -0.0142553         146.341
0.571                  -0.664235        -159.485         -54.0555        -121.365         -54.0555        -121.364       -0.0143887         146.269
0.572                  -0.684833        -160.254         -53.9241        -122.605         -53.9241        -122.604       -0.0145239         146.196
0.573                  -0.706583        -161.034         -53.7897        -123.851         -53.7897         -123.85       -0.0146609         146.123
0.574                  -0.729559        -161.825         -53.6522        -125.105         -53.6522        -125.104       -0.0147998          146.05
0.575                  -0.753841        -162.627         -53.5116        -126.367         -53.5116        -126.366       -0.0149406         145.977
0.576                  -0.779516         -163.44          -53.368        -127.637          -53.368        -127.637       -0.0150834         145.904
0.577                  -0.806676        -164.264         -53.2214        -128.918         -53.2214        -128.917       -0.0152281         145.831
0.578                   -0.83542        -165.101         -53.0718         -130.21         -53.0717        -130.209       -0.0153749         145.757
0.579                  -0.865856        -165.949         -52.9191        -131.513         -52.9191        -131.512       -0.0155237         145.683
0.58                   -0.898099         -166.81         -52.7635        -132.829         -52.7635        -132.828       -0.0156745          145.61
0.581                  -0.932274        -167.683          -52.605        -134.158          -52.605        -134.158       -0.0158275         145.536
0.582                  -0.968515        -168.569         -52.4436        -135.502         -52.4435        -135.502       -0.0159826         145.462
0.583                   -1.00697        -169.468         -52.2793        -136.862         -52.2792        -136.861       -0.0161399         145.387
0.584                   -1.04778         -170.38         -52.1122        -138.238         -52.1121        -138.237       -0.0162995         145.313
0.585                   -1.09114        -171.305         -51.9423        -139.631         -51.9422        -139.631       -0.0164613         145.238
0.586                    -1.1372        -172.244         -51.7697        -141.044         -51.7696        -141.044       -0.0166253         145.163
0.587                   -1.18619        -173.196         -51.5944        -142.477         -51.5944        -142.476       -0.0167917         145.088
0.588                   -1.23829        -174.162         -51.4166         -143.93         -51.4166         -143.93       -0.0169605         145.013
0.589                   -1.29375        -175.142         -51.2363        -145.406         -51.2363        -145.406       -0.0171317         144.938
0.59                    -1.35281        -176.135         -51.0536        -146.906         -51.0536        -146.906       -0.0173054         144.863
0.591                   -1.41573        -177.141         -50.8687         -148.43         -50.8686         -148.43       -0.0174815         144.787
0.592                   -1.48279        -178.161         -50.6815         -149.98         -50.6814         -149.98       -0.0176601         144.711
0.593                   -1.55432        -179.194         -50.4923        -151.558         -50.4923        -151.558       -0.0178414         144.635
0.594                   -1.63062         179.761         -50.3013        -153.165         -50.3012        -153.165       -0.0180252         144.559
0.595                   -1.71207         178.704         -50.1085        -154.801         -50.1084        -154.801       -0.0182116         144.483
0.596                   -1.79904         177.637         -49.9142         -156.47         -49.9141         -156.47       -0.0184008         144.406
0.597                   -1.89194         176.559         -49.7186         -158.17         -49.7185         -158.17       -0.0185926         144.329
0.598                   -1.99119         175.472         -49.5218        -159.905         -49.5218        -159.905       -0.0187872         144.252
0.599                   -2.09727         174.378         -49.3242        -161.676         -49.3242        -161.676       -0.0189845         144.175
0.6                     -2.21066         173.279         -49.1261        -163.483          -49.126        -163.483       -0.0191847         144.098
0.601                   -2.33187         172.177         -48.9276        -165.328         -48.9276        -165.328       -0.0193877         144.021
0.602                   -2.46144         171.075         -48.7292        -167.212         -48.7291        -167.212       -0.0195935         143.943
0.603                   -2.59995         169.975         -48.5312        -169.136         -48.5311        -169.136       -0.0198022         143.865
0.604                   -2.74797         168.882         -48.3339        -171.101         -48.3338        -171.101       -0.0200138         143.787
0.605                    -2.9061           167.8         -48.1378        -173.107         -48.1377        -173.107       -0.0202283         143.709
0.606                   -3.07494         166.735         -47.9433        -175.157         -47.9432        -175.157       -0.0204457          143.63
0.607                   -3.25509         165.692         -47.7508        -177.249         -47.7508        -177.249        -0.020666         143.552
0.608                   -3.44713         164.678         -47.5609        -179.384         -47.5609        -179.384       -0.0208892         143.473
0.609                   -3.65158         163.703          -47.374         178.438          -47.374         178.438       -0.0211152         143.394
0.61                    -3.86894         162.774         -47.1907         176.217         -47.1907         176.217       -0.0213442         143.314
0.611                   -4.09958         161.904         -47.0115         173.955         -47.0115         173.955       -0.0215761         143.235
0.612                   -4.34375         161.104          -46.837         171.651         -46.8369         171.651       -0.0218108         143.155
0.613                   -4.60151         160.388         -46.6676         169.308         -46.6675         169.308       -0.0220483         143.075
0.614                   -4.87269         159.772          -46.504         166.927         -46.5039         166.927       -0.0222886         142.995
0.615                   -5.15678         159.272         -46.3466         164.511         -46.3465         164.511       -0.0225318         142.915
0.616                   -5.45288         158.907          -46.196         162.062          -46.196         162.062       -0.0227777         142.834
0.617                   -5.75957         158.698         -46.0528         159.583         -46.0527         159.583       -0.0230264         142.753
0.618                   -6.07482         158.664         -45.9172         157.078         -45.9172         157.078        -0.023278         142.672
0.619                   -6.39582         158.827         -45.7898          154.55         -45.7898         154.551       -0.0235323         142.591
0.62                    -6.71891         159.206         -45.6709         152.004         -45.6708         152.004       -0.0237896         142.509
0.621                   -7.03948          159.82         -45.5607         149.444         -45.5606         149.444       -0.0240499         142.427
0.622                    -7.3519          160.68         -45.4595         146.874         -45.4594         146.875       -0.0243132         142.345
0.623                   -7.64962         161.794         -45.3674           144.3         -45.3674         144.301       -0.0245797         142.263
0.624                    -7.9253         163.159         -45.2845         141.727         -45.2844         141.727       -0.0248496          142.18
0.625                   -8.17125          164.76         -45.2107         139.158         -45.2106         139.159       -0.0251229         142.097
0.626                   -8.37987         166.569         -45.1459           136.6         -45.1459           136.6          -0.0254         142.014
0.627                   -8.54443         168.545           -45.09         134.057           -45.09         134.057        -0.025681         141.931
0.628                   -8.65974         170.633         -45.0427         131.534         -45.0427         131.534       -0.0259661         141.847
0.629                    -8.7228          172.77         -45.0036         129.034         -45.0036         129.035       -0.0262555         141.763
0.63                    -8.73318         174.891         -44.9724         126.563         -44.9724         126.563       -0.0265496         141.679
0.631                     -8.693         176.932         -44.9487         124.123         -44.9487         124.123       -0.0268484         141.594
0.632                   -8.60669         178.836         -44.9319         121.718         -44.9319         121.718       -0.0271523         141.509
0.633                   -8.48027         -179.44         -44.9215         119.351         -44.9215         119.351       -0.0274614         141.424
0.634                   -8.32074        -177.928          -44.917         117.024          -44.917         117.025       -0.0277759         141.339
0.635                   -8.13534        -176.647         -44.9178          114.74         -44.9178          114.74       -0.0280961         141.253
0.636                   -7.93102        -175.604         -44.9233         112.499         -44.9233           112.5        -0.028422         141.167
0.637                   -7.71407        -174.795         -44.9329         110.304         -44.9329         110.304       -0.0287539         141.081
0.638                    -7.4899        -174.211         -44.9462         108.155         -44.9462         108.155       -0.0290919         140.994
0.639                   -7.26302         -173.84         -44.9624         106.052         -44.9625         106.052       -0.0294361         140.907
0.64                    -7.03704        -173.664         -44.9812         103.996         -44.9812         103.997       -0.0297867          140.82
0.641                   -6.81474        -173.667         -45.0019         101.987         -45.0019         101.987       -0.0301438         140.732
0.642                   -6.59824        -173.831          -45.024         100.024          -45.024         100.024       -0.0305074         140.644
0.643                   -6.38904        -174.139         -45.0471         98.1069         -45.0471         98.1073       -0.0308778         140.556
0.644                    -6.1882        -174.577         -45.0707         96.2346         -45.0707          96.235        -0.031255         140.468
0.645                    -5.9964        -175.129         -45.0944         94.4063         -45.0945         94.4068       -0.0316391         140.379
0.646                   -5.81402        -175.783         -45.1179         92.6209         -45.1179         92.6214       -0.0320302         140.289
0.647                   -5.64122        -176.528         -45.1406         90.8772         -45.1406         90.8777       -0.0324284           140.2
0.648                   -5.47802        -177.352         -45.1623         89.1739         -45.1624         89.1744       -0.0328339          140.11
0.649                   -5.32428        -178.248         -45.1828         87.5095         -45.1828         87.5101       -0.0332468         140.019
0.65                    -5.17981        -179.208         -45.2016         85.8827         -45.2016         85.8833       -0.0336671         139.929
0.651                   -5.04434         179.776         -45.2185         84.2919         -45.2185         84.2925       -0.0340951         139.838
0.652                   -4.91756         178.709         -45.2333         82.7356         -45.2333         82.7363       -0.0345307         139.746
0.653                   -4.79914         177.596         -45.2457         81.2123         -45.2458          81.213       -0.0349742         139.654
0.654                   -4.68876         176.442         -45.2556         79.7204         -45.2556         79.7211       -0.0354257         139.562
0.655                   -4.58606         175.249         -45.2628         78.2584         -45.2628         78.2591       -0.0358853          139.47
0.656                   -4.49073         174.022         -45.2671         76.8246         -45.2671         76.8254       -0.0363532         139.377
0.657                   -4.40243         172.763         -45.2683         75.4176         -45.2683         75.4184       -0.0368295         139.283
0.658                   -4.32085         171.475         -45.2663         74.0358         -45.2663         74.0366       -0.0373143          139.19
0.659                    -4.2457         170.158          -45.261         72.6778         -45.2611         72.6785        -0.037808         139.096
0.66                     -4.1767         168.815         -45.2524         71.3419         -45.2524         71.3427       -0.0383105         139.001
0.661                   -4.11359         167.447         -45.2402         70.0267         -45.2402         70.0275       -0.0388221         138.906
0.662                   -4.05612         166.054         -45.2244         68.7307         -45.2244         68.7315       -0.0393429         138.811
0.663                   -4.00406         164.638         -45.2049         67.4525         -45.2049         67.4533       -0.0398732         138.715
0.664                   -3.95722         163.199         -45.1817         66.1907         -45.1817         66.1915       -0.0404131         138.618
0.665                    -3.9154         161.738         -45.1547         64.9438         -45.1547         64.9446       -0.0409629         138.522
0.666                   -3.87843         160.254         -45.1239         63.7105         -45.1238         63.7113       -0.0415226         138.424
0.667                   -3.84615         158.748         -45.0892         62.4894         -45.0891         62.4902       -0.0420926         138.327
0.668                   -3.81843          157.22         -45.0505         61.2791         -45.0505         61.2799       -0.0426731         138.229
0.669                   -3.79513          155.67         -45.0079         60.0783         -45.0079         60.0791       -0.0432642          138.13
0.67                    -3.77615         154.096         -44.9614         58.8857         -44.9614         58.8864       -0.0438662         138.031
0.671                    -3.7614           152.5         -44.9109         57.6999         -44.9109         57.7006       -0.0444794         137.931
0.672                   -3.75078          150.88         -44.8565         56.5197         -44.8564         56.5204       -0.0451039         137.831
0.673                   -3.74425         149.236          -44.798         55.3439          -44.798         55.3445       -0.0457399         137.731
0.674                   -3.74173         147.567         -44.7356          54.171         -44.7356         54.1716       -0.0463879          137.63
0.675                   -3.74319         145.873         -44.6693         52.9999         -44.6692         53.0005        -0.047048         137.528
0.676                    -3.7486         144.152          -44.599         51.8294          -44.599         51.8299       -0.0477204         137.426
0.677                   -3.75794         142.405         -44.5249         50.6581         -44.5248         50.6587       -0.0484055         137.323
0.678                    -3.7712         140.629         -44.4469         49.4849         -44.4468         49.4855       -0.0491035          137.22
0.679                    -3.7884         138.825         -44.3651         48.3087          -44.365         48.3091       -0.0498146         137.116
0.68                    -3.80953         136.991         -44.2795         47.1281         -44.2794         47.1285       -0.0505393         137.012
0.681                   -3.83464         135.125         -44.1902          45.942         -44.1901         45.9424       -0.0512778         136.907
0.682                   -3.86375         133.227         -44.0972         44.7493         -44.0971         44.7496       -0.0520303         136.801
0.683                   -3.89691         131.296         -44.0007         43.5487         -44.0006         43.5491       -0.0527972         136.695
0.684                   -3.93418          129.33         -43.9007         42.3392         -43.9006         42.3395       -0.0535788         136.589
0.685                   -3.97563         127.328         -43.7972         41.1197         -43.7971           41.12       -0.0543755         136.481
0.686                   -4.02132         125.289         -43.6905         39.8891         -43.6904         39.8893       -0.0551875         136.373
0.687                   -4.07135          123.21         -43.5805         38.6462         -43.5804         38.6464       -0.0560152         136.265
0.688                    -4.1258         121.091         -43.4674         37.3901         -43.4673         37.3903       -0.0568589         136.156
0.689                   -4.18477         118.929         -43.3513         36.1198         -43.3512         36.1199        -0.057719         136.046
0.69                    -4.24838         116.724         -43.2324         34.8343         -43.2323         34.8343       -0.0585959         135.935
0.691                   -4.31674         114.472         -43.1108         33.5325         -43.1107         33.5326       -0.0594899         135.824
0.692                   -4.38996         112.173         -42.9865         32.2138         -42.9864         32.2138       -0.0604014         135.712
0.693                   -4.46817         109.824         -42.8599         30.8771         -42.8598         30.8771       -0.0613307         135.599
0.694                    -4.5515         107.423         -42.7309         29.5217         -42.7308         29.5217       -0.0622784         135.486
0.695                   -4.64008         104.968         -42.5999         28.1469         -42.5998         28.1468       -0.0632447         135.372
0.696                   -4.73404         102.457         -42.4669          26.752         -42.4669         26.7518       -0.0642301         135.257