! TOUCHSTONE file generated by CST MICROWAVE STUDIO
! Date and time: Thu Feb 11 19:31:33 2021
! Project name: Scenario_1_Planar_Body_Tissue_Out_of_Line.cst
! Parameters = {L_HA=400; Ltissue=1000; MT=2.54; Rad_Dielectric=30; Rad_Lower=7.3; Rad_Upper=30; Wtissue=1000; a_HA=580; a_WG=246; b_HA=500; b_WG=121; c_HA=0; c_WG=187; d_feed=85; dx1=346; dy1=-259.5; h_feed=15; h_lower=18; h_upper=40; hfat=3; hgap=25; hmuscle=50; hskin=1.5}
! Header version: 2018
! Port assignment regex: !\s*Touchstone port\s*([0-9]+)\s*=\s*(CST MWS port|CST DS port)\s*([0-9]+|Zmin|Zmax)\s*\(\"(.*)\"\)(\s*mode\s*([0-9]+))?.*
! Touchstone port assignment:
! Touchstone port 1 = CST MWS port 1 ("")
! Touchstone port 2 = CST MWS port 2 ("")
# GHz S DB R 50
0.5                    -0.266559        -121.669         -57.8901         6.55338          -57.891          6.5544      -0.00819665         151.144
0.501                  -0.269033        -122.047         -57.9748         3.52624          -57.976         3.53107      -0.00825591         151.079
0.502                  -0.271428        -122.427         -58.0464        0.574482         -58.0478        0.582586      -0.00831557         151.013
0.503                   -0.27375        -122.811         -58.1057        -2.30191         -58.1073        -2.29103      -0.00837563         150.948
0.504                  -0.276002        -123.198         -58.1535        -5.10333         -58.1553        -5.09013       -0.0084361         150.883
0.505                   -0.27819        -123.588         -58.1907        -7.83053         -58.1927         -7.8154        -0.008497         150.817
0.506                  -0.280319        -123.982         -58.2181        -10.4846         -58.2202        -10.4679      -0.00855836         150.752
0.507                  -0.282394        -124.379         -58.2364        -13.0668         -58.2387        -13.0489      -0.00862017         150.686
0.508                  -0.284421        -124.779         -58.2463        -15.5788         -58.2487        -15.5599      -0.00868246         150.621
0.509                  -0.286404        -125.183         -58.2485        -18.0225          -58.251        -18.0028      -0.00874524         150.555
0.51                   -0.288349         -125.59         -58.2436        -20.3996         -58.2462        -20.3795      -0.00880852         150.489
0.511                   -0.29026            -126         -58.2323        -22.7125         -58.2349         -22.692      -0.00887233         150.423
0.512                  -0.292144        -126.415          -58.215        -24.9632         -58.2177        -24.9426      -0.00893668         150.357
0.513                  -0.294005        -126.832         -58.1923         -27.154          -58.195        -27.1334      -0.00900158         150.291
0.514                  -0.295848        -127.254         -58.1646        -29.2873         -58.1673        -29.2667      -0.00906704         150.225
0.515                   -0.29768        -127.679         -58.1323        -31.3654          -58.135        -31.3449       -0.0091331         150.159
0.516                  -0.299505        -128.107         -58.0959        -33.3905         -58.0986        -33.3703      -0.00919975         150.092
0.517                   -0.30133         -128.54         -58.0556        -35.3649         -58.0583        -35.3451      -0.00926701         150.026
0.518                  -0.303159        -128.976         -58.0119         -37.291         -58.0145        -37.2716      -0.00933491          149.96
0.519                  -0.304999        -129.416         -57.9648         -39.171         -57.9674        -39.1521      -0.00940346         149.893
0.52                   -0.306855         -129.86         -57.9148         -41.007         -57.9174        -40.9885      -0.00947268         149.826
0.521                  -0.308734        -130.308          -57.862        -42.8012         -57.8645        -42.7832      -0.00954257          149.76
0.522                  -0.310641         -130.76         -57.8067        -44.5555         -57.8091         -44.538      -0.00961317         149.693
0.523                  -0.312582        -131.216         -57.7489        -46.2719         -57.7513         -46.255      -0.00968448         149.626
0.524                  -0.314565        -131.676         -57.6889        -47.9524         -57.6912         -47.936      -0.00975652         149.559
0.525                  -0.316595         -132.14         -57.6268        -49.5987          -57.629        -49.5829      -0.00982932         149.492
0.526                  -0.318679        -132.608         -57.5627        -51.2127         -57.5648        -51.1975      -0.00990288         149.424
0.527                  -0.320825        -133.081         -57.4968         -52.796         -57.4988        -52.7813      -0.00997723         149.357
0.528                  -0.323038        -133.558          -57.429        -54.3502          -57.431        -54.3361       -0.0100524          149.29
0.529                  -0.325326        -134.039         -57.3596        -55.8769         -57.3614        -55.8633       -0.0101283         149.222
0.53                   -0.327697        -134.525         -57.2885        -57.3775         -57.2902        -57.3645       -0.0102052         149.155
0.531                  -0.330159        -135.016         -57.2158        -58.8534         -57.2174         -58.841       -0.0102828         149.087
0.532                  -0.332719        -135.511         -57.1415        -60.3061         -57.1431        -60.2942       -0.0103614         149.019
0.533                  -0.335386        -136.011         -57.0658        -61.7368         -57.0673        -61.7254       -0.0104408         148.951
0.534                  -0.338167        -136.515         -56.9886        -63.1466           -56.99        -63.1358       -0.0105212         148.883
0.535                  -0.341073        -137.025         -56.9099        -64.5369         -56.9112        -64.5265       -0.0106025         148.815
0.536                  -0.344112        -137.539         -56.8298        -65.9087          -56.831        -65.8988       -0.0106847         148.747
0.537                  -0.347293        -138.059         -56.7482        -67.2631         -56.7494        -67.2537       -0.0107679         148.679
0.538                  -0.350627        -138.583         -56.6653        -68.6011         -56.6664        -68.5922       -0.0108522          148.61
0.539                  -0.354123        -139.113         -56.5809        -69.9238         -56.5819        -69.9154       -0.0109374         148.542
0.54                   -0.357793        -139.648         -56.4951         -71.232          -56.496         -71.224       -0.0110237         148.473
0.541                  -0.361648        -140.188         -56.4079        -72.5267         -56.4087        -72.5192        -0.011111         148.404
0.542                    -0.3657        -140.734         -56.3192        -73.8088           -56.32        -73.8017       -0.0111994         148.336
0.543                   -0.36996        -141.285         -56.2291         -75.079         -56.2298        -75.0723       -0.0112889         148.267
0.544                  -0.374441        -141.843         -56.1375        -76.3383         -56.1381         -76.332       -0.0113795         148.198
0.545                  -0.379158        -142.405         -56.0444        -77.5873          -56.045        -77.5814       -0.0114713         148.128
0.546                  -0.384124        -142.974         -55.9498        -78.8269         -55.9503        -78.8214       -0.0115643         148.059
0.547                  -0.389353        -143.549         -55.8537        -80.0578         -55.8541        -80.0526       -0.0116584          147.99
0.548                  -0.394863         -144.13          -55.756        -81.2806         -55.7564        -81.2758       -0.0117537          147.92
0.549                  -0.400668        -144.717         -55.6567        -82.4961          -55.657        -82.4916       -0.0118503         147.851
0.55                   -0.406786        -145.311         -55.5558        -83.7049         -55.5561        -83.7007       -0.0119482         147.781
0.551                  -0.413235        -145.911         -55.4532        -84.9076         -55.4535        -84.9038       -0.0120473         147.711
0.552                  -0.420035        -146.518          -55.349         -86.105         -55.3492        -86.1015       -0.0121477         147.641
0.553                  -0.427206        -147.131         -55.2431        -87.2977         -55.2432        -87.2945       -0.0122495         147.571
0.554                  -0.434769        -147.752         -55.1354        -88.4861         -55.1355        -88.4832       -0.0123526         147.501
0.555                  -0.442747         -148.38         -55.0259        -89.6711          -55.026        -89.6685       -0.0124572         147.431
0.556                  -0.451164        -149.015         -54.9146         -90.853         -54.9147        -90.8507       -0.0125631          147.36
0.557                  -0.460046        -149.657         -54.8015        -92.0327         -54.8015        -92.0306       -0.0126705          147.29
0.558                  -0.469419        -150.307         -54.6864        -93.2105         -54.6864        -93.2087       -0.0127794         147.219
0.559                  -0.479312        -150.965         -54.5695        -94.3871         -54.5694        -94.3855       -0.0128897         147.148
0.56                   -0.489756         -151.63         -54.4505        -95.5631         -54.4505        -95.5618       -0.0130016         147.077
0.561                  -0.500782        -152.304         -54.3296        -96.7391         -54.3295         -96.738        -0.013115         147.006
0.562                  -0.512427        -152.986         -54.2067        -97.9156         -54.2066        -97.9147         -0.01323         146.935
0.563                  -0.524726        -153.677         -54.0816        -99.0933         -54.0815        -99.0926       -0.0133466         146.864
0.564                  -0.537718        -154.376         -53.9545        -100.273         -53.9543        -100.272       -0.0134649         146.792
0.565                  -0.551446        -155.084         -53.8251        -101.454          -53.825        -101.454       -0.0135849         146.721
0.566                  -0.565954        -155.801         -53.6936        -102.639         -53.6935        -102.639       -0.0137065         146.649
0.567                  -0.581289        -156.528         -53.5599        -103.827         -53.5598        -103.827       -0.0138299         146.577
0.568                  -0.597504        -157.264         -53.4239        -105.019         -53.4238        -105.019        -0.013955         146.505
0.569                  -0.614652         -158.01         -53.2856        -106.216         -53.2855        -106.217        -0.014082         146.433
0.57                   -0.632793        -158.767          -53.145        -107.419         -53.1449        -107.419       -0.0142108         146.361
0.571                  -0.651988        -159.533         -53.0021        -108.627         -53.0019        -108.628       -0.0143414         146.288
0.572                  -0.672305         -160.31         -52.8567        -109.843         -52.8565        -109.843        -0.014474         146.216
0.573                  -0.693817        -161.098         -52.7089        -111.066         -52.7087        -111.066       -0.0146085         146.143
0.574                  -0.716601        -161.896         -52.5586        -112.297         -52.5584        -112.298       -0.0147449          146.07
0.575                  -0.740739        -162.707         -52.4059        -113.537         -52.4057        -113.538       -0.0148834         145.997
0.576                  -0.766323        -163.528         -52.2506        -114.787         -52.2505        -114.788       -0.0150239         145.924
0.577                  -0.793448        -164.362         -52.0929        -116.047         -52.0927        -116.048       -0.0151665         145.851
0.578                  -0.822218        -165.207         -51.9326        -117.319         -51.9324         -117.32       -0.0153113         145.777
0.579                  -0.852744        -166.065         -51.7697        -118.603         -51.7696        -118.604       -0.0154581         145.704
0.58                   -0.885148        -166.935         -51.6043          -119.9         -51.6042        -119.901       -0.0156072          145.63
0.581                  -0.919558        -167.818         -51.4363        -121.211         -51.4362        -121.213       -0.0157585         145.556
0.582                  -0.956115        -168.715         -51.2657        -122.538         -51.2656        -122.539       -0.0159121         145.482
0.583                  -0.994971        -169.624         -51.0926         -123.88         -51.0925        -123.881       -0.0160679         145.408
0.584                   -1.03629        -170.547         -50.9169        -125.239         -50.9169        -125.241       -0.0162262         145.333
0.585                   -1.08024        -171.483         -50.7387        -126.617         -50.7386        -126.618       -0.0163868         145.259
0.586                   -1.12702        -172.434          -50.558        -128.013         -50.5579        -128.015       -0.0165498         145.184
0.587                   -1.17683        -173.398         -50.3748         -129.43         -50.3748        -129.432       -0.0167153         145.109
0.588                   -1.22989        -174.376         -50.1892        -130.869         -50.1891         -130.87       -0.0168833         145.034
0.589                   -1.28644        -175.367         -50.0012         -132.33         -50.0012        -132.331       -0.0170538         144.959
0.59                    -1.34674        -176.373         -49.8109        -133.815         -49.8109        -133.817        -0.017227         144.884
0.591                   -1.41106        -177.392         -49.6183        -135.326         -49.6183        -135.327       -0.0174027         144.808
0.592                   -1.47971        -178.425         -49.4237        -136.863         -49.4237        -136.865       -0.0175811         144.733
0.593                     -1.553        -179.471          -49.227        -138.429          -49.227         -138.43       -0.0177621         144.657
0.594                   -1.63128         179.471         -49.0284        -140.023         -49.0284        -140.024       -0.0179459         144.581
0.595                   -1.71492         178.401          -48.828        -141.649         -48.8281         -141.65       -0.0181324         144.504
0.596                   -1.80433          177.32         -48.6261        -143.307         -48.6262        -143.308       -0.0183217         144.428
0.597                   -1.89991          176.23         -48.4228        -144.998         -48.4229        -144.999       -0.0185138         144.351
0.598                   -2.00214          175.13         -48.2182        -146.725         -48.2183        -146.725       -0.0187087         144.275
0.599                   -2.11149         174.024         -48.0128        -148.488         -48.0129        -148.488       -0.0189065         144.198
0.6                     -2.22847         172.913         -47.8066        -150.288         -47.8067        -150.289       -0.0191072          144.12
0.601                   -2.35362           171.8         -47.5999        -152.129         -47.6001        -152.129       -0.0193107         144.043
0.602                   -2.48751         170.687         -47.3932        -154.009         -47.3933        -154.009       -0.0195171         143.965
0.603                   -2.63073         169.579         -47.1867        -155.931         -47.1868        -155.931       -0.0197265         143.888
0.604                   -2.78388         168.478         -46.9808        -157.896          -46.981        -157.896       -0.0199387          143.81
0.605                   -2.94759          167.39          -46.776        -159.904         -46.7761        -159.904       -0.0201539         143.732
0.606                   -3.12248         166.321         -46.5725        -161.957         -46.5727        -161.957        -0.020372         143.653
0.607                   -3.30916         165.278          -46.371        -164.055         -46.3712        -164.055        -0.020593         143.575
0.608                   -3.50823         164.267         -46.1719        -166.198          -46.172        -166.198       -0.0208168         143.496
0.609                   -3.72022         163.297         -45.9757        -168.386         -45.9759        -168.386       -0.0210436         143.417
0.61                    -3.94562          162.38          -45.783        -170.619         -45.7831        -170.619       -0.0212731         143.338
0.611                   -4.18478         161.526         -45.5943        -172.897         -45.5944        -172.897       -0.0215055         143.259
0.612                   -4.43792         160.749         -45.4102        -175.218         -45.4103        -175.218       -0.0217407         143.179
0.613                   -4.70504         160.064         -45.2312        -177.582         -45.2313        -177.581       -0.0219786         143.099
0.614                   -4.98586         159.487          -45.058        -179.985         -45.0581        -179.985       -0.0222192         143.019
0.615                   -5.27974         159.036         -44.8911         177.573         -44.8911         177.573       -0.0224625         142.939
0.616                    -5.5856         158.731          -44.731         175.095          -44.731         175.096       -0.0227085         142.858
0.617                   -5.90175         158.595         -44.5783         172.585         -44.5783         172.586       -0.0229571         142.778
0.618                   -6.22582         158.647         -44.4334         170.046         -44.4335         170.047       -0.0232082         142.697
0.619                    -6.5546          158.91         -44.2968         167.482         -44.2969         167.483        -0.023462         142.616
0.62                     -6.8839         159.405         -44.1689         164.898         -44.1689         164.898       -0.0237183         142.534
0.621                   -7.20851         160.148         -44.0499         162.297           -44.05         162.298       -0.0239772         142.453
0.622                   -7.52216          161.15         -43.9402         159.685         -43.9402         159.685       -0.0242386         142.371
0.623                   -7.81762         162.415         -43.8398         157.066         -43.8397         157.067       -0.0245027         142.289
0.624                   -8.08697         163.936         -43.7487         154.446         -43.7487         154.447       -0.0247695         142.206
0.625                   -8.32209         165.691         -43.6671         151.831         -43.6671         151.831        -0.025039         142.123
0.626                   -8.51529         167.645         -43.5948         149.224         -43.5948         149.224       -0.0253114         142.041
0.627                   -8.66011         169.748         -43.5316         146.631         -43.5316         146.632       -0.0255867         141.957
0.628                   -8.75206         171.938         -43.4773         144.058         -43.4772         144.058       -0.0258651         141.874
0.629                   -8.78922         174.148         -43.4314         141.507         -43.4314         141.507       -0.0261467          141.79
0.63                    -8.77246         176.307         -43.3937         138.984         -43.3936         138.984       -0.0264318         141.706
0.631                   -8.70529         178.352         -43.3636         136.492         -43.3636         136.493       -0.0267205         141.622
0.632                   -8.59332         -179.77         -43.3406         134.035         -43.3406         134.036        -0.027013         141.537
0.633                   -8.44355        -178.098         -43.3243         131.616         -43.3243         131.616       -0.0273095         141.452
0.634                   -8.26355        -176.659          -43.314         129.237          -43.314         129.237       -0.0276104         141.367
0.635                   -8.06084        -175.463         -43.3092         126.899         -43.3092         126.899       -0.0279157         141.282
0.636                   -7.84237        -174.513         -43.3093         124.606         -43.3092         124.606       -0.0282259         141.196
0.637                   -7.61424        -173.802         -43.3136         122.358         -43.3136         122.358       -0.0285411          141.11
0.638                   -7.38157        -173.316         -43.3216         120.155         -43.3216         120.155       -0.0288615         141.023
0.639                    -7.1485        -173.039         -43.3328         117.999         -43.3328         117.999       -0.0291875         140.936
0.64                    -6.91828        -172.953         -43.3466         115.889         -43.3466         115.889       -0.0295192         140.849
0.641                   -6.69335         -173.04         -43.3625         113.825         -43.3625         113.825        -0.029857         140.762
0.642                    -6.4755        -173.283         -43.3799         111.807         -43.3799         111.807        -0.030201         140.674
0.643                   -6.26599        -173.663         -43.3984         109.834         -43.3984         109.834       -0.0305515         140.586
0.644                   -6.06564        -174.167         -43.4176         107.906         -43.4176         107.906       -0.0309086         140.498
0.645                   -5.87494        -174.779          -43.437         106.021          -43.437         106.021       -0.0312727         140.409
0.646                   -5.69412        -175.488         -43.4563         104.178         -43.4563         104.178       -0.0316439          140.32
0.647                   -5.52321        -176.283         -43.4751         102.375         -43.4751         102.376       -0.0320223          140.23
0.648                   -5.36213        -177.152          -43.493         100.613          -43.493         100.613       -0.0324082         140.141
0.649                   -5.21067        -178.089         -43.5098         98.8886         -43.5098         98.8887       -0.0328018         140.051
0.65                    -5.06856        -179.086         -43.5253         97.2009         -43.5253         97.2011       -0.0332032          139.96
0.651                   -4.93549         179.864         -43.5391         95.5484         -43.5391         95.5487       -0.0336126         139.869
0.652                   -4.81112         178.766          -43.551         93.9297          -43.551           93.93       -0.0340301         139.778
0.653                   -4.69508         177.625         -43.5608         92.3432         -43.5608         92.3435       -0.0344559         139.686
0.654                   -4.58702         176.445         -43.5684         90.7873         -43.5684         90.7877       -0.0348903         139.594
0.655                   -4.48659          175.23         -43.5735         89.2607         -43.5735         89.2611       -0.0353332         139.502
0.656                   -4.39344         173.982         -43.5761         87.7617         -43.5761         87.7621       -0.0357849         139.409
0.657                   -4.30723         172.703         -43.5759          86.289         -43.5759         86.2894       -0.0362456         139.316
0.658                   -4.22765         171.396          -43.573         84.8411         -43.5729         84.8415       -0.0367154         139.222
0.659                    -4.1544         170.063         -43.5671         83.4165          -43.567          83.417       -0.0371944         139.128
0.66                     -4.0872         168.704         -43.5581         82.0139         -43.5581         82.0144       -0.0376829         139.034
0.661                   -4.02577         167.321          -43.546         80.6319          -43.546         80.6324        -0.038181         138.939
0.662                   -3.96989         165.915         -43.5308         79.2691         -43.5307         79.2697       -0.0386889         138.844
0.663                   -3.91932         164.486         -43.5122         77.9243         -43.5122         77.9249       -0.0392067         138.748
0.664                   -3.87386         163.035         -43.4904         76.5962         -43.4903         76.5967       -0.0397346         138.652
0.665                   -3.83331         161.562         -43.4652         75.2834         -43.4651          75.284       -0.0402729         138.555
0.666                   -3.79752         160.068         -43.4365         73.9848         -43.4365         73.9854       -0.0408216         138.458
0.667                   -3.76631         158.551         -43.4044         72.6991         -43.4043         72.6997       -0.0413811         138.361
0.668                   -3.73955         157.013         -43.3688         71.4252         -43.3687         71.4258       -0.0419515         138.263
0.669                   -3.71712         155.453         -43.3297         70.1618         -43.3296         70.1624        -0.042533         138.164
0.67                    -3.69892          153.87         -43.2871         68.9077          -43.287         68.9083       -0.0431259         138.065
0.671                   -3.68483         152.264         -43.2408         67.6619         -43.2407         67.6625       -0.0437303         137.966
0.672                   -3.67479         150.634          -43.191         66.4232         -43.1909         66.4238       -0.0443466         137.866
0.673                   -3.66874         148.981         -43.1377         65.1904         -43.1375          65.191       -0.0449749         137.766
0.674                    -3.6666         147.303         -43.0807         63.9625         -43.0805          63.963       -0.0456155         137.665
0.675                   -3.66835           145.6         -43.0201         62.7382           -43.02         62.7388       -0.0462686         137.563
0.676                   -3.67394          143.87         -42.9559         61.5165         -42.9558         61.5171       -0.0469346         137.461
0.677                   -3.68337         142.113         -42.8882         60.2963          -42.888         60.2968       -0.0476137         137.359
0.678                   -3.69663         140.328         -42.8169         59.0763         -42.8167         59.0769       -0.0483061         137.256
0.679                   -3.71372         138.514          -42.742         57.8556         -42.7418         57.8561       -0.0490122         137.152
0.68                    -3.73465          136.67         -42.6636          56.633         -42.6634         56.6335       -0.0497323         137.048
0.681                   -3.75946         134.794         -42.5817         55.4073         -42.5815         55.4078       -0.0504667         136.943
0.682                   -3.78817         132.886         -42.4963         54.1775         -42.4962         54.1779       -0.0512157         136.838
0.683                   -3.82083         130.944         -42.4075         52.9423         -42.4074         52.9428       -0.0519796         136.732
0.684                   -3.85749         128.966         -42.3154         51.7007         -42.3152         51.7012       -0.0527587         136.626
0.685                   -3.89823         126.952         -42.2199         50.4516         -42.2197          50.452       -0.0535535         136.519
0.686                    -3.9431           124.9         -42.1212         49.1937          -42.121         49.1941       -0.0543642         136.411
0.687                    -3.9922         122.809         -42.0193          47.926         -42.0191         47.9264       -0.0551913         136.303
0.688                   -4.04562         120.676         -41.9143         46.6474         -41.9141         46.6477       -0.0560351         136.194
0.689                   -4.10345           118.5         -41.8063         45.3567         -41.8061          45.357        -0.056896         136.084
0.69                    -4.16579         116.279         -41.6954         44.0528         -41.6953         44.0531       -0.0577743         135.974
0.691                   -4.23276         114.012         -41.5818         42.7347         -41.5816          42.735       -0.0586705         135.863
0.692                   -4.30447         111.696         -41.4654         41.4013         -41.4653         41.4015        -0.059585         135.751
0.693                   -4.38106         109.329         -41.3466         40.0516         -41.3465         40.0518       -0.0605182         135.639
0.694                   -4.46263          106.91         -41.2254         38.6846         -41.2253         38.6848       -0.0614705         135.526
0.695                   -4.54931         104.435          -41.102         37.2994         -41.1018         37.2996       -0.0624424         135.412
0.696                   -4.64125         101.903         -40.9765         35.8951         -40.9764         35.8953       -0.0634342         135.298