! TOUCHSTONE file generated by CST MICROWAVE STUDIO
! Date and time: Thu Feb 11 19:31:41 2021
! Project name: Scenario_1_Planar_Body_Tissue_Out_of_Line.cst
! Parameters = {L_HA=400; Ltissue=1000; MT=2.54; Rad_Dielectric=30; Rad_Lower=7.3; Rad_Upper=30; Wtissue=1000; a_HA=580; a_WG=246; b_HA=500; b_WG=121; c_HA=0; c_WG=187; d_feed=85; dx1=346; dy1=-242.2; h_feed=15; h_lower=18; h_upper=40; hfat=3; hgap=25; hmuscle=50; hskin=1.5}
! Header version: 2018
! Port assignment regex: !\s*Touchstone port\s*([0-9]+)\s*=\s*(CST MWS port|CST DS port)\s*([0-9]+|Zmin|Zmax)\s*\(\"(.*)\"\)(\s*mode\s*([0-9]+))?.*
! Touchstone port assignment:
! Touchstone port 1 = CST MWS port 1 ("")
! Touchstone port 2 = CST MWS port 2 ("")
# GHz S DB R 50
0.5                    -0.269104        -121.662         -57.5931         10.1776          -57.593         10.1774      -0.00823665         151.145
0.501                  -0.270083        -122.051         -57.5568          8.9892         -57.5566          8.9875      -0.00829337          151.08
0.502                  -0.271083        -122.443         -57.5187         7.78612         -57.5185         7.78282      -0.00835064         151.015
0.503                  -0.272105        -122.838         -57.4789         6.56813         -57.4786          6.5632      -0.00840848          150.95
0.504                  -0.273151        -123.236         -57.4373           5.335         -57.4369         5.32843       -0.0084669         150.884
0.505                  -0.274223        -123.636         -57.3938         4.08651         -57.3934         4.07828       -0.0085259         150.819
0.506                  -0.275322         -124.04         -57.3485         2.82245          -57.348         2.81254       -0.0085855         150.753
0.507                  -0.276451        -124.446         -57.3012         1.54257         -57.3006         1.53096       -0.0086457         150.688
0.508                   -0.27761        -124.855          -57.252         0.24664         -57.2513        0.233314      -0.00870652         150.622
0.509                  -0.278803        -125.267         -57.2007        -1.06559         -57.2001        -1.08065      -0.00876796         150.557
0.51                   -0.280031        -125.682         -57.1475        -2.39438         -57.1467        -2.41119      -0.00883003         150.491
0.511                  -0.281297          -126.1         -57.0921           -3.74         -57.0914        -3.75857      -0.00889275         150.425
0.512                  -0.282602        -126.521         -57.0347        -5.10272         -57.0339        -5.12307      -0.00895612         150.359
0.513                   -0.28395        -126.945         -56.9752        -6.48284         -56.9743        -6.50497      -0.00902016         150.293
0.514                  -0.285343        -127.372         -56.9135        -7.88064         -56.9127        -7.90456      -0.00908488         150.227
0.515                  -0.286783        -127.803         -56.8497        -9.29644         -56.8488        -9.32217      -0.00915028         150.161
0.516                  -0.288273        -128.237         -56.7837        -10.7306         -56.7828        -10.7581      -0.00921638         150.094
0.517                  -0.289816        -128.674         -56.7156        -12.1834         -56.7147        -12.2127       -0.0092832         150.028
0.518                  -0.291416        -129.115         -56.6453        -13.6552         -56.6444        -13.6863      -0.00935074         149.961
0.519                  -0.293075        -129.559         -56.5728        -15.1464          -56.572        -15.1793      -0.00941901         149.895
0.52                   -0.294796        -130.007         -56.4983        -16.6573         -56.4975         -16.692      -0.00948803         149.828
0.521                  -0.296584        -130.458         -56.4216        -18.1883         -56.4209        -18.2248      -0.00955781         149.761
0.522                  -0.298441        -130.913         -56.3429        -19.7399         -56.3423        -19.7781      -0.00962837         149.694
0.523                  -0.300372        -131.371         -56.2622        -21.3124         -56.2617        -21.3524      -0.00969971         149.628
0.524                   -0.30238        -131.834         -56.1796        -22.9063         -56.1791        -22.9479      -0.00977185          149.56
0.525                  -0.304471          -132.3         -56.0951        -24.5218         -56.0948         -24.565       -0.0098448         149.493
0.526                  -0.306647         -132.77         -56.0089        -26.1595         -56.0087        -26.2042      -0.00991858         149.426
0.527                  -0.308915        -133.244         -55.9211        -27.8196          -55.921        -27.8659      -0.00999321         149.359
0.528                  -0.311279        -133.722         -55.8317        -29.5026         -55.8318        -29.5503       -0.0100687         149.291
0.529                  -0.313743        -134.204          -55.741        -31.2088         -55.7413        -31.2577        -0.010145         149.224
0.53                   -0.316314         -134.69         -55.6492        -32.9383         -55.6497        -32.9884       -0.0102223         149.156
0.531                  -0.318997        -135.181         -55.5563        -34.6915         -55.5571        -34.7426       -0.0103004         149.089
0.532                  -0.321799        -135.676         -55.4628        -36.4683         -55.4638        -36.5203       -0.0103795         149.021
0.533                  -0.324724        -136.175         -55.3687        -38.2688           -55.37        -38.3216       -0.0104595         148.953
0.534                  -0.327781        -136.679         -55.2744        -40.0929          -55.276        -40.1462       -0.0105404         148.885
0.535                  -0.330976        -137.188         -55.1802        -41.9403         -55.1821        -41.9938       -0.0106223         148.817
0.536                  -0.334316        -137.701         -55.0864        -43.8104         -55.0886         -43.864       -0.0107052         148.749
0.537                  -0.337809        -138.219         -54.9933        -45.7025         -54.9959        -45.7559       -0.0107891          148.68
0.538                  -0.341464        -138.742         -54.9014        -47.6156         -54.9042        -47.6685        -0.010874         148.612
0.539                  -0.345289        -139.269         -54.8109        -49.5484         -54.8141        -49.6005       -0.0109599         148.543
0.54                   -0.349294        -139.802         -54.7223        -51.4993         -54.7258        -51.5503       -0.0110469         148.475
0.541                  -0.353487         -140.34         -54.6359        -53.4662         -54.6398        -53.5158        -0.011135         148.406
0.542                  -0.357879        -140.884         -54.5522        -55.4466         -54.5564        -55.4945       -0.0112241         148.337
0.543                  -0.362482        -141.433         -54.4715        -57.4377         -54.4761        -57.4835       -0.0113144         148.268
0.544                  -0.367306        -141.987         -54.3942        -59.4363          -54.399        -59.4796       -0.0114058         148.199
0.545                  -0.372363        -142.547         -54.3206        -61.4384         -54.3256        -61.4791       -0.0114984          148.13
0.546                  -0.377667        -143.113         -54.2508          -63.44         -54.2561        -63.4776       -0.0115921         148.061
0.547                   -0.38323        -143.684         -54.1852        -65.4363         -54.1906        -65.4708        -0.011687         147.991
0.548                  -0.389068        -144.262         -54.1237        -67.4226         -54.1292        -67.4536       -0.0117831         147.922
0.549                  -0.395196        -144.846         -54.0665        -69.3936          -54.072        -69.4211       -0.0118805         147.852
0.55                   -0.401629        -145.436         -54.0133         -71.344         -54.0188        -71.3678       -0.0119791         147.782
0.551                  -0.408386        -146.033          -53.964        -73.2684         -53.9694        -73.2886        -0.012079         147.712
0.552                  -0.415484        -146.636         -53.9182        -75.1615         -53.9234        -75.1781       -0.0121802         147.643
0.553                  -0.422942        -147.246         -53.8755        -77.0184         -53.8805        -77.0316       -0.0122827         147.572
0.554                  -0.430782        -147.863         -53.8352        -78.8345         -53.8399        -78.8444       -0.0123865         147.502
0.555                  -0.439026        -148.487         -53.7967        -80.6057         -53.8011        -80.6126       -0.0124918         147.432
0.556                  -0.447696        -149.118         -53.7593        -82.3286         -53.7633        -82.3329       -0.0125984         147.361
0.557                  -0.456818        -149.756         -53.7219        -84.0008         -53.7255        -84.0028       -0.0127064         147.291
0.558                  -0.466419        -150.403         -53.6838        -85.6205          -53.687        -85.6207       -0.0128159          147.22
0.559                  -0.476526        -151.057          -53.644        -87.1871         -53.6467        -87.1859       -0.0129269         147.149
0.56                    -0.48717        -151.719         -53.6015        -88.7009         -53.6037        -88.6987       -0.0130394         147.078
0.561                  -0.498384        -152.389         -53.5554        -90.1631         -53.5572        -90.1602       -0.0131533         147.007
0.562                  -0.510201        -153.068         -53.5049        -91.5756         -53.5063        -91.5725       -0.0132689         146.936
0.563                   -0.52266        -153.755         -53.4491        -92.9415         -53.4501        -92.9386        -0.013386         146.865
0.564                  -0.535798        -154.451         -53.3874        -94.2644          -53.388        -94.2618       -0.0135047         146.793
0.565                  -0.549659        -155.156          -53.319        -95.5484         -53.3193        -95.5464       -0.0136251         146.722
0.566                  -0.564288         -155.87         -53.2436         -96.798         -53.2436        -96.7969       -0.0137471          146.65
0.567                  -0.579732        -156.594         -53.1606        -98.0183         -53.1604        -98.0182       -0.0138708         146.578
0.568                  -0.596045        -157.328         -53.0698        -99.2143         -53.0694        -99.2152       -0.0139962         146.506
0.569                  -0.613282        -158.071          -52.971        -100.391         -52.9705        -100.393       -0.0141234         146.434
0.57                   -0.631503        -158.825         -52.8642        -101.554         -52.8635        -101.557       -0.0142524         146.361
0.571                  -0.650771         -159.59         -52.7493        -102.707         -52.7486        -102.711       -0.0143832         146.289
0.572                  -0.671156        -160.365         -52.6264        -103.856         -52.6257         -103.86       -0.0145159         146.216
0.573                  -0.692733        -161.151         -52.4957        -105.004          -52.495         -105.01       -0.0146504         146.144
0.574                   -0.71558        -161.948         -52.3574        -106.156         -52.3567        -106.163       -0.0147868         146.071
0.575                  -0.739784        -162.758         -52.2119        -107.316         -52.2112        -107.323       -0.0149252         145.998
0.576                  -0.765438        -163.579         -52.0593        -108.487         -52.0587        -108.495       -0.0150656         145.925
0.577                   -0.79264        -164.412            -51.9        -109.672         -51.8994         -109.68        -0.015208         145.851
0.578                  -0.821498        -165.257         -51.7344        -110.874         -51.7339        -110.882       -0.0153524         145.778
0.579                  -0.852129        -166.115         -51.5628        -112.094         -51.5624        -112.102       -0.0154989         145.704
0.58                   -0.884656        -166.986         -51.3856        -113.337         -51.3852        -113.345       -0.0156476          145.63
0.581                  -0.919214        -167.871         -51.2031        -114.602         -51.2028         -114.61       -0.0157984         145.557
0.582                  -0.955949        -168.768         -51.0157        -115.892         -51.0156          -115.9       -0.0159514         145.482
0.583                  -0.995017         -169.68         -50.8238        -117.209         -50.8237        -117.216       -0.0161067         145.408
0.584                   -1.03659        -170.605         -50.6278        -118.553         -50.6277         -118.56       -0.0162642         145.334
0.585                   -1.08084        -171.544         -50.4278        -119.926         -50.4279        -119.933        -0.016424         145.259
0.586                   -1.12798        -172.497         -50.2244        -121.329         -50.2245        -121.335       -0.0165862         145.185
0.587                   -1.17821        -173.465         -50.0177        -122.763         -50.0179        -122.768       -0.0167508          145.11
0.588                   -1.23177        -174.447         -49.8082        -124.228         -49.8084        -124.233       -0.0169178         145.035
0.589                    -1.2889        -175.443         -49.5961        -125.726         -49.5963         -125.73       -0.0170873         144.959
0.59                    -1.34987        -176.453         -49.3817        -127.257         -49.3819         -127.26       -0.0172593         144.884
0.591                   -1.41497        -177.477         -49.1653        -128.821         -49.1655        -128.824       -0.0174339         144.808
0.592                   -1.48451        -178.515         -48.9472         -130.42         -48.9474        -130.423        -0.017611         144.733
0.593                   -1.55881        -179.567         -48.7277        -132.055         -48.7279        -132.057       -0.0177908         144.657
0.594                   -1.63825         179.369         -48.5071        -133.724         -48.5073        -133.726       -0.0179732         144.581
0.595                    -1.7232         178.294         -48.2857         -135.43         -48.2859        -135.431       -0.0181584         144.504
0.596                   -1.81407         177.207         -48.0637        -137.173         -48.0639        -137.174       -0.0183464         144.428
0.597                   -1.91131          176.11         -47.8415        -138.953         -47.8417        -138.953       -0.0185371         144.351
0.598                   -2.01538         175.005         -47.6194        -140.771         -47.6195         -140.77       -0.0187307         144.274
0.599                   -2.12677         173.893         -47.3976        -142.627         -47.3977        -142.626       -0.0189272         144.197
0.6                     -2.24602         172.777         -47.1766        -144.521         -47.1767         -144.52       -0.0191266          144.12
0.601                   -2.37366          171.66         -46.9566        -146.454         -46.9567        -146.452       -0.0193289         144.043
0.602                   -2.51029         170.543          -46.738        -148.426          -46.738        -148.424       -0.0195343         143.965
0.603                   -2.65648         169.432         -46.5211        -150.437         -46.5211        -150.435       -0.0197427         143.887
0.604                   -2.81286         168.331         -46.3064        -152.487         -46.3063        -152.485       -0.0199542         143.809
0.605                   -2.98005         167.243         -46.0941        -154.576          -46.094        -154.574       -0.0201688         143.731
0.606                   -3.15865         166.177         -45.8846        -156.703         -45.8845        -156.701       -0.0203865         143.653
0.607                   -3.34928         165.138         -45.6784        -158.869         -45.6783        -158.867       -0.0206075         143.574
0.608                   -3.55251         164.135         -45.4759        -161.073         -45.4757        -161.071       -0.0208316         143.495
0.609                   -3.76883         163.177         -45.2774        -163.313         -45.2772        -163.311       -0.0210589         143.416
0.61                    -3.99869         162.274         -45.0834         -165.59         -45.0832        -165.588       -0.0212895         143.337
0.611                   -4.24238         161.439         -44.8943        -167.901          -44.894        -167.899       -0.0215234         143.258
0.612                   -4.50004         160.686         -44.7104        -170.245         -44.7101        -170.243       -0.0217605         143.178
0.613                   -4.77155         160.029         -44.5322        -172.621         -44.5319        -172.619        -0.022001         143.098
0.614                   -5.05652         159.486           -44.36        -175.026         -44.3598        -175.025       -0.0222447         143.018
0.615                   -5.35416         159.075         -44.1943        -177.459          -44.194        -177.458       -0.0224918         142.938
0.616                   -5.66318         158.817         -44.0353        -179.916         -44.0351        -179.915       -0.0227421         142.857
0.617                   -5.98169         158.732         -43.8834         177.604         -43.8832         177.605       -0.0229957         142.777
0.618                   -6.30706         158.842         -43.7388         175.105         -43.7386         175.106       -0.0232525         142.696
0.619                   -6.63582         159.168         -43.6019         172.589         -43.6017          172.59       -0.0235125         142.614
0.62                    -6.96352         159.728         -43.4727         170.061         -43.4725         170.062       -0.0237757         142.533
0.621                    -7.2847         160.538         -43.3515         167.524         -43.3513         167.524        -0.024042         142.451
0.622                   -7.59288         161.607         -43.2383          164.98         -43.2382          164.98       -0.0243114         142.369
0.623                   -7.88075         162.934         -43.1333         162.434         -43.1332         162.434       -0.0245838         142.287
0.624                   -8.14044         164.508         -43.0364         159.889         -43.0364         159.889       -0.0248591         142.205
0.625                   -8.36409         166.304         -42.9477         157.349         -42.9476         157.349       -0.0251371         142.122
0.626                   -8.54447         168.284         -42.8669         154.818         -42.8669         154.818        -0.025418         142.039
0.627                   -8.67576         170.394          -42.794         152.298          -42.794         152.298       -0.0257014         141.956
0.628                   -8.75427         172.573         -42.7287         149.794         -42.7288         149.794       -0.0259874         141.873
0.629                   -8.77884         174.752         -42.6709         147.309          -42.671         147.309       -0.0262757         141.789
0.63                    -8.75105         176.867         -42.6202         144.845         -42.6204         144.845       -0.0265664         141.705
0.631                   -8.67487         178.855         -42.5764         142.406         -42.5766         142.406       -0.0268593         141.621
0.632                   -8.55618         -179.33         -42.5391         139.993         -42.5394         139.993       -0.0271544         141.536
0.633                   -8.40195        -177.724          -42.508          137.61         -42.5082          137.61       -0.0274516         141.451
0.634                    -8.2196         -176.35         -42.4825         135.258         -42.4829         135.258       -0.0277509         141.366
0.635                   -8.01633        -175.216         -42.4625         132.939         -42.4628         132.939       -0.0280523         141.281
0.636                   -7.79874        -174.321         -42.4473         130.655         -42.4477         130.655       -0.0283558         141.195
0.637                   -7.57257        -173.659         -42.4367         128.407         -42.4371         128.407       -0.0286617         141.109
0.638                    -7.3426        -173.214         -42.4302         126.195         -42.4306         126.196       -0.0289701         141.022
0.639                   -7.11269        -172.972         -42.4273         124.022         -42.4277         124.023       -0.0292813         140.936
0.64                    -6.88586        -172.915         -42.4276         121.887         -42.4281         121.888       -0.0295956         140.849
0.641                   -6.66438        -173.025         -42.4308          119.79         -42.4313         119.792       -0.0299133         140.761
0.642                    -6.4499        -173.285         -42.4365         117.732         -42.4369         117.734       -0.0302351         140.674
0.643                   -6.24358        -173.679         -42.4442         115.714         -42.4446         115.715       -0.0305613         140.586
0.644                   -6.04618        -174.192         -42.4535         113.734          -42.454         113.735       -0.0308927         140.497
0.645                   -5.85815        -174.811         -42.4642         111.792         -42.4646         111.794       -0.0312297         140.408
0.646                    -5.6797        -175.525         -42.4758         109.888         -42.4763          109.89       -0.0315732         140.319
0.647                   -5.51086        -176.322         -42.4881         108.021         -42.4886         108.024       -0.0319237          140.23
0.648                   -5.35154        -177.193         -42.5007         106.192         -42.5012         106.194       -0.0322819          140.14
0.649                   -5.20155         -178.13         -42.5134         104.398         -42.5138         104.401       -0.0326485          140.05
0.65                    -5.06063        -179.127         -42.5258          102.64         -42.5262         102.642       -0.0330241         139.959
0.651                   -4.92849         179.824         -42.5376         100.915          -42.538         100.918       -0.0334091         139.868
0.652                    -4.8048         178.727         -42.5487         99.2247         -42.5491         99.2275       -0.0338041         139.776
0.653                   -4.68923         177.587         -42.5588         97.5665         -42.5591         97.5693       -0.0342095         139.685
0.654                   -4.58144         176.408         -42.5676         95.9397         -42.5679         95.9426       -0.0346256         139.592
0.655                   -4.48109         175.192          -42.575         94.3435         -42.5753         94.3464       -0.0350528           139.5
0.656                   -4.38785         173.944         -42.5807         92.7766          -42.581         92.7795       -0.0354913         139.407
0.657                   -4.30142         172.664         -42.5846         91.2382         -42.5848          91.241       -0.0359413         139.313
0.658                   -4.22149         171.356         -42.5864          89.727         -42.5867         89.7298       -0.0364029         139.219
0.659                   -4.14777         170.021         -42.5861         88.2419         -42.5863         88.2447       -0.0368761         139.125
0.66                    -4.08002          168.66         -42.5834         86.7819         -42.5835         86.7846       -0.0373612          139.03
0.661                   -4.01796         167.274         -42.5781         85.3458         -42.5783         85.3485        -0.037858         138.935
0.662                   -3.96138         165.864         -42.5702         83.9325         -42.5704         83.9351       -0.0383667          138.84
0.663                   -3.91007         164.431         -42.5596         82.5408         -42.5597         82.5433       -0.0388872         138.744
0.664                   -3.86382         162.974         -42.5459         81.1696          -42.546         81.1719       -0.0394196         138.648
0.665                   -3.82245         161.496         -42.5293         79.8176         -42.5293         79.8198       -0.0399639         138.551
0.666                   -3.78582         159.995         -42.5095         78.4837         -42.5095         78.4858       -0.0405201         138.453
0.667                   -3.75377         158.471         -42.4864         77.1666         -42.4864         77.1686       -0.0410883         138.356
0.668                   -3.72616         156.925         -42.4599         75.8651         -42.4599          75.867       -0.0416684         138.258
0.669                   -3.70289         155.356         -42.4299          74.578         -42.4299         74.5797       -0.0422607         138.159
0.67                    -3.68386         153.764         -42.3964          73.304         -42.3964         73.3056       -0.0428651          138.06
0.671                   -3.66897         152.149         -42.3593         72.0418         -42.3593         72.0432       -0.0434817          137.96
0.672                   -3.65815          150.51         -42.3185         70.7901         -42.3184         70.7913       -0.0441107          137.86
0.673                   -3.65134         148.846         -42.2738         69.5476         -42.2738         69.5486       -0.0447522         137.759
0.674                    -3.6485         147.157         -42.2254         68.3128         -42.2253         68.3137       -0.0454064         137.658
0.675                   -3.64957         145.442          -42.173         67.0845          -42.173         67.0852       -0.0460733         137.557
0.676                   -3.65454         143.701         -42.1167         65.8611         -42.1167         65.8617       -0.0467532         137.455
0.677                   -3.66338         141.932         -42.0565         64.6414         -42.0564         64.6419       -0.0474463         137.352
0.678                   -3.67611         140.134         -41.9923         63.4238         -41.9922         63.4241       -0.0481527         137.249
0.679                   -3.69271         138.308         -41.9241         62.2069         -41.9241         62.2071       -0.0488728         137.145
0.68                    -3.71321          136.45         -41.8519         60.9892         -41.8519         60.9893       -0.0496067         137.041
0.681                   -3.73764         134.562         -41.7758         59.7693         -41.7757         59.7692       -0.0503548         136.936
0.682                   -3.76602          132.64         -41.6957         58.5455         -41.6956         58.5453       -0.0511172          136.83
0.683                    -3.7984         130.685         -41.6117         57.3164         -41.6117         57.3162       -0.0518943         136.724
0.684                   -3.83485         128.694         -41.5238         56.0806         -41.5238         56.0802       -0.0526863         136.618
0.685                   -3.87541         126.666         -41.4322         54.8365         -41.4322          54.836       -0.0534937          136.51
0.686                   -3.92016         124.601         -41.3369         53.5826         -41.3368          53.582       -0.0543166         136.402
0.687                   -3.96919         122.496         -41.2379         52.3174         -41.2379         52.3168       -0.0551556         136.294
0.688                   -4.02256         120.349         -41.1355         51.0396         -41.1355          51.039       -0.0560108         136.185
0.689                   -4.08039          118.16         -41.0297         49.7477         -41.0297         49.7471       -0.0568827         136.075
0.69                    -4.14277         115.926         -40.9207         48.4404         -40.9207         48.4397       -0.0577717         135.964
0.691                    -4.2098         113.646         -40.8086         47.1164         -40.8086         47.1157       -0.0586781         135.853
0.692                    -4.2816         111.317         -40.6937         45.7745         -40.6937         45.7738       -0.0596024         135.742
0.693                   -4.35827         108.938          -40.576         44.4135         -40.5761         44.4128        -0.060545         135.629
0.694                   -4.43994         106.506         -40.4559         43.0323          -40.456         43.0316       -0.0615064         135.516
0.695                   -4.52673          104.02         -40.3335           41.63         -40.3336         41.6294        -0.062487         135.402
0.696                   -4.61875         101.476         -40.2091         40.2058         -40.2092         40.2052       -0.0634872         135.287