! TOUCHSTONE file generated by CST MICROWAVE STUDIO
! Date and time: Thu Feb 11 19:31:49 2021
! Project name: Scenario_1_Planar_Body_Tissue_Out_of_Line.cst
! Parameters = {L_HA=400; Ltissue=1000; MT=2.54; Rad_Dielectric=30; Rad_Lower=7.3; Rad_Upper=30; Wtissue=1000; a_HA=580; a_WG=246; b_HA=500; b_WG=121; c_HA=0; c_WG=187; d_feed=85; dx1=346; dy1=-224.9; h_feed=15; h_lower=18; h_upper=40; hfat=3; hgap=25; hmuscle=50; hskin=1.5}
! Header version: 2018
! Port assignment regex: !\s*Touchstone port\s*([0-9]+)\s*=\s*(CST MWS port|CST DS port)\s*([0-9]+|Zmin|Zmax)\s*\(\"(.*)\"\)(\s*mode\s*([0-9]+))?.*
! Touchstone port assignment:
! Touchstone port 1 = CST MWS port 1 ("")
! Touchstone port 2 = CST MWS port 2 ("")
# GHz S DB R 50
0.5                    -0.271203        -121.631         -57.3239         13.6089         -57.3239         13.6091      -0.00823098         151.146
0.501                    -0.2717        -122.033         -57.3237         12.4947         -57.3234         12.4963      -0.00827215          151.08
0.502                   -0.27224        -122.438         -57.3223         11.3688         -57.3219         11.3717      -0.00831433         151.015
0.503                  -0.272823        -122.845         -57.3198         10.2312         -57.3191         10.2355      -0.00835752          150.95
0.504                   -0.27345        -123.255         -57.3161         9.08183         -57.3152         9.08755      -0.00840173         150.884
0.505                  -0.274124        -123.668         -57.3111         7.92069         -57.3099         7.92782      -0.00844696         150.819
0.506                  -0.274847        -124.083         -57.3048         6.74775         -57.3034         6.75629      -0.00849323         150.754
0.507                  -0.275619        -124.501          -57.297           5.563         -57.2954         5.57296      -0.00854053         150.688
0.508                  -0.276444        -124.922         -57.2879         4.36643         -57.2861         4.37781      -0.00858889         150.622
0.509                  -0.277323        -125.345         -57.2773         3.15806         -57.2753         3.17087      -0.00863829         150.556
0.51                   -0.278259        -125.772         -57.2652          1.9379          -57.263         1.95214      -0.00868876         150.491
0.511                  -0.279253        -126.201         -57.2515         0.70598         -57.2491        0.721651       -0.0087403         150.425
0.512                  -0.280307        -126.633         -57.2361       -0.537656         -57.2336       -0.520555      -0.00879291         150.359
0.513                  -0.281425        -127.068         -57.2191        -1.79296         -57.2164        -1.77443       -0.0088466         150.293
0.514                  -0.282609        -127.506         -57.2004        -3.05986         -57.1975        -3.03991      -0.00890139         150.226
0.515                  -0.283861        -127.947         -57.1799        -4.33829         -57.1768        -4.31691      -0.00895728          150.16
0.516                  -0.285184        -128.391         -57.1575        -5.62815         -57.1543        -5.60536      -0.00901427         150.094
0.517                  -0.286581        -128.839         -57.1333        -6.92935         -57.1299        -6.90516      -0.00907238         150.027
0.518                  -0.288055        -129.289         -57.1071        -8.24176         -57.1036        -8.21619      -0.00913162         149.961
0.519                  -0.289609        -129.743          -57.079        -9.56527         -57.0753        -9.53832      -0.00919199         149.894
0.52                   -0.291246          -130.2         -57.0488        -10.8997          -57.045        -10.8714       -0.0092535         149.827
0.521                   -0.29297         -130.66         -57.0165         -12.245         -57.0125        -12.2153      -0.00931616         149.761
0.522                  -0.294785        -131.124         -56.9821        -13.6009          -56.978        -13.5699      -0.00937997         149.694
0.523                  -0.296693        -131.592         -56.9454        -14.9673         -56.9413         -14.935      -0.00944496         149.627
0.524                    -0.2987        -132.062         -56.9066        -16.3439         -56.9023        -16.3103      -0.00951113          149.56
0.525                  -0.300808        -132.537         -56.8654        -17.7306         -56.8611        -17.6958      -0.00957848         149.493
0.526                  -0.303023        -133.015         -56.8219        -19.1271         -56.8175        -19.0911      -0.00964703         149.425
0.527                   -0.30535        -133.497         -56.7761        -20.5333         -56.7716        -20.4961      -0.00971678         149.358
0.528                  -0.307792        -133.983         -56.7278        -21.9489         -56.7232        -21.9105      -0.00978776         149.291
0.529                  -0.310355        -134.472         -56.6771        -23.3736         -56.6724        -23.3341      -0.00985996         149.223
0.53                   -0.313043        -134.966         -56.6238        -24.8072         -56.6191        -24.7666      -0.00993339         149.156
0.531                  -0.315864        -135.464         -56.5681        -26.2494         -56.5633        -26.2078       -0.0100081         149.088
0.532                  -0.318822        -135.965         -56.5097           -27.7         -56.5049        -27.6574        -0.010084          149.02
0.533                  -0.321923        -136.471         -56.4488        -29.1586         -56.4439        -29.1151       -0.0101612         148.952
0.534                  -0.325175        -136.982         -56.3852        -30.6251         -56.3803        -30.5806       -0.0102397         148.884
0.535                  -0.328583        -137.496         -56.3189        -32.0991          -56.314        -32.0538       -0.0103195         148.816
0.536                  -0.332156        -138.015         -56.2499        -33.5802          -56.245        -33.5341       -0.0104006         148.748
0.537                  -0.335899        -138.539         -56.1783        -35.0683         -56.1733        -35.0215        -0.010483          148.68
0.538                  -0.339823        -139.067         -56.1038         -36.563         -56.0989        -36.5155       -0.0105667         148.611
0.539                  -0.343934          -139.6         -56.0267        -38.0641         -56.0217        -38.0159       -0.0106517         148.543
0.54                   -0.348241        -140.137         -55.9467        -39.5711         -55.9418        -39.5224       -0.0107381         148.474
0.541                  -0.352755         -140.68         -55.8639        -41.0839          -55.859        -41.0346       -0.0108259         148.405
0.542                  -0.357485        -141.228         -55.7784        -42.6021         -55.7735        -42.5524        -0.010915         148.337
0.543                  -0.362441        -141.781           -55.69        -44.1255         -55.6851        -44.0754       -0.0110056         148.268
0.544                  -0.367634        -142.339         -55.5988        -45.6538         -55.5939        -45.6033       -0.0110975         148.199
0.545                  -0.373077        -142.902         -55.5048        -47.1866         -55.4999        -47.1359       -0.0111908          148.13
0.546                  -0.378781        -143.471         -55.4079        -48.7238         -55.4031        -48.6729       -0.0112856          148.06
0.547                  -0.384759        -144.046         -55.3082        -50.2651         -55.3035         -50.214       -0.0113818         147.991
0.548                  -0.391027        -144.626         -55.2057        -51.8102          -55.201         -51.759       -0.0114795         147.922
0.549                  -0.397597        -145.212         -55.1004        -53.3589         -55.0957        -53.3077       -0.0115786         147.852
0.55                   -0.404486        -145.804         -54.9923         -54.911         -54.9877        -54.8599       -0.0116792         147.782
0.551                  -0.411711        -146.403         -54.8813        -56.4663         -54.8768        -56.4153       -0.0117813         147.713
0.552                  -0.419289        -147.007         -54.7676        -58.0246         -54.7631        -57.9738       -0.0118849         147.643
0.553                  -0.427239        -147.619         -54.6511        -59.5857         -54.6467        -59.5352       -0.0119901         147.573
0.554                  -0.435581        -148.236         -54.5319        -61.1495         -54.5275        -61.0993       -0.0120968         147.502
0.555                  -0.444336        -148.861         -54.4099        -62.7159         -54.4056        -62.6661        -0.012205         147.432
0.556                  -0.453527        -149.492         -54.2852        -64.2847         -54.2809        -64.2353       -0.0123148         147.362
0.557                  -0.463178        -150.131         -54.1578        -65.8559         -54.1536         -65.807       -0.0124262         147.291
0.558                  -0.473315        -150.777         -54.0277        -67.4293         -54.0235         -67.381       -0.0125393         147.221
0.559                  -0.483964         -151.43         -53.8949         -69.005         -53.8909        -68.9572       -0.0126539          147.15
0.56                   -0.495156        -152.091         -53.7596        -70.5828         -53.7556        -70.5358       -0.0127702         147.079
0.561                  -0.506922         -152.76         -53.6216        -72.1629         -53.6176        -72.1166       -0.0128881         147.008
0.562                  -0.519294        -153.437          -53.481        -73.7452         -53.4772        -73.6997       -0.0130078         146.937
0.563                  -0.532309        -154.122         -53.3379        -75.3298         -53.3341        -75.2851       -0.0131291         146.866
0.564                  -0.546006        -154.815         -53.1923        -76.9168         -53.1886         -76.873       -0.0132521         146.794
0.565                  -0.560424        -155.518         -53.0442        -78.5062         -53.0405        -78.4633       -0.0133769         146.723
0.566                  -0.575608        -156.229         -52.8936        -80.0981           -52.89        -80.0563       -0.0135034         146.651
0.567                  -0.591605        -156.949         -52.7406        -81.6929         -52.7371         -81.652       -0.0136317         146.579
0.568                  -0.608465        -157.679         -52.5852        -83.2905         -52.5818        -83.2507       -0.0137617         146.507
0.569                  -0.626242        -158.418         -52.4274        -84.8913         -52.4241        -84.8526       -0.0138936         146.435
0.57                   -0.644996        -159.168         -52.2673        -86.4954          -52.264        -86.4579       -0.0140274         146.363
0.571                  -0.664787        -159.927         -52.1049        -88.1032         -52.1017        -88.0669       -0.0141629         146.291
0.572                  -0.685683        -160.697         -51.9402        -89.7149         -51.9371        -89.6798       -0.0143004         146.218
0.573                  -0.707757        -161.478         -51.7733        -91.3309         -51.7702         -91.297       -0.0144397         146.146
0.574                  -0.731087        -162.269         -51.6042        -92.9515         -51.6012        -92.9189        -0.014581         146.073
0.575                  -0.755756        -163.072         -51.4329        -94.5771           -51.43        -94.5458       -0.0147242             146
0.576                  -0.781854        -163.887         -51.2595        -96.2082         -51.2567        -96.1782       -0.0148693         145.927
0.577                   -0.80948        -164.713          -51.084        -97.8451         -51.0812        -97.8164       -0.0150165         145.854
0.578                  -0.838738        -165.551         -50.9064        -99.4883         -50.9038         -99.461       -0.0151656         145.781
0.579                  -0.869741        -166.402         -50.7269        -101.138         -50.7243        -101.113       -0.0153168         145.707
0.58                   -0.902612        -167.265         -50.5453        -102.796         -50.5428        -102.771         -0.01547         145.633
0.581                  -0.937484        -168.141         -50.3618        -104.462         -50.3594        -104.438       -0.0156254          145.56
0.582                  -0.974499         -169.03         -50.1765        -106.136         -50.1742        -106.114       -0.0157828         145.486
0.583                   -1.01381        -169.932         -49.9893        -107.819          -49.987        -107.799       -0.0159424         145.412
0.584                   -1.05559        -170.848         -49.8003        -109.513         -49.7982        -109.494       -0.0161041         145.337
0.585                   -1.10001        -171.778         -49.6096        -111.217         -49.6075        -111.199       -0.0162681         145.263
0.586                   -1.14727        -172.722         -49.4172        -112.932         -49.4152        -112.916       -0.0164342         145.188
0.587                   -1.19759         -173.68         -49.2232         -114.66         -49.2213        -114.645       -0.0166026         145.114
0.588                   -1.25118        -174.652         -49.0276        -116.401         -49.0259        -116.387       -0.0167733         145.039
0.589                    -1.3083        -175.638         -48.8306        -118.155         -48.8289        -118.143       -0.0169463         144.964
0.59                    -1.36922        -176.638         -48.6321        -119.925         -48.6306        -119.914       -0.0171216         144.888
0.591                   -1.43421        -177.652         -48.4324         -121.71          -48.431          -121.7       -0.0172992         144.813
0.592                    -1.5036         -178.68         -48.2314        -123.512         -48.2301        -123.503       -0.0174793         144.737
0.593                   -1.57771        -179.721         -48.0293        -125.331         -48.0282        -125.324       -0.0176618         144.662
0.594                   -1.65691         179.226         -47.8262        -127.169         -47.8252        -127.163       -0.0178467         144.586
0.595                   -1.74158          178.16         -47.6222        -129.027         -47.6213        -129.022       -0.0180342         144.509
0.596                   -1.83215         177.083         -47.4175        -130.906         -47.4167        -130.901       -0.0182241         144.433
0.597                   -1.92905         175.996         -47.2121        -132.806         -47.2115        -132.803       -0.0184167         144.357
0.598                   -2.03276         174.901         -47.0063         -134.73         -47.0058        -134.727       -0.0186118          144.28
0.599                   -2.14379         173.799         -46.8002        -136.677         -46.7998        -136.675       -0.0188096         144.203
0.6                     -2.26267         172.692          -46.594        -138.649         -46.5937        -138.648         -0.01901         144.126
0.601                   -2.38997         171.583         -46.3879        -140.648         -46.3878        -140.647       -0.0192131         144.049
0.602                   -2.52629         170.475         -46.1822        -142.674         -46.1822        -142.674        -0.019419         143.971
0.603                   -2.67224         169.372          -45.977        -144.728         -45.9771        -144.728       -0.0196276         143.894
0.604                   -2.82846         168.278         -45.7727        -146.811         -45.7729        -146.812       -0.0198391         143.816
0.605                    -2.9956         167.198         -45.5695        -148.925         -45.5699        -148.926       -0.0200535         143.738
0.606                    -3.1743         166.139         -45.3678        -151.069         -45.3682         -151.07       -0.0202707          143.66
0.607                    -3.3652         165.107         -45.1678        -153.245         -45.1683        -153.247       -0.0204909         143.581
0.608                    -3.5689         164.111         -44.9699        -155.453         -44.9706        -155.455       -0.0207141         143.503
0.609                   -3.78595          163.16         -44.7746        -157.694         -44.7753        -157.696       -0.0209403         143.424
0.61                    -4.01682         162.266         -44.5821        -159.968         -44.5829         -159.97       -0.0211696         143.345
0.611                   -4.26183         161.441         -44.3929        -162.275         -44.3938        -162.277       -0.0214021         143.265
0.612                   -4.52114         160.699         -44.2075        -164.615         -44.2084        -164.616       -0.0216377         143.186
0.613                   -4.79465         160.056         -44.0262        -166.987         -44.0272        -166.988       -0.0218766         143.106
0.614                   -5.08196          159.53         -43.8496        -169.392         -43.8506        -169.392       -0.0221187         143.026
0.615                   -5.38223          159.14         -43.6781        -171.827         -43.6791        -171.827       -0.0223642         142.946
0.616                    -5.6941         158.908         -43.5122        -174.292         -43.5131        -174.292        -0.022613         142.866
0.617                   -6.01556         158.857         -43.3523        -176.784         -43.3532        -176.784       -0.0228653         142.785
0.618                   -6.34381         159.007         -43.1989        -179.303         -43.1998        -179.302       -0.0231211         142.704
0.619                   -6.67509         159.381         -43.0525         178.155         -43.0533         178.156       -0.0233805         142.623
0.62                    -7.00463             160         -42.9134         175.592         -42.9142         175.593       -0.0236435         142.542
0.621                   -7.32653         160.877         -42.7821         173.011         -42.7828         173.012       -0.0239102          142.46
0.622                   -7.63387          162.02         -42.6589         170.416         -42.6594         170.417       -0.0241806         142.378
0.623                   -7.91881         163.429          -42.544          167.81         -42.5444         167.811       -0.0244549         142.296
0.624                   -8.17306         165.089         -42.4377         165.198         -42.4381         165.199       -0.0247331         142.214
0.625                   -8.38843         166.969         -42.3403         162.583         -42.3405         162.583       -0.0250152         142.131
0.626                   -8.55759         169.027         -42.2517         159.969         -42.2518          159.97       -0.0253014         142.049
0.627                   -8.67493         171.203         -42.1721         157.363         -42.1721         157.363       -0.0255917         141.965
0.628                   -8.73724         173.431         -42.1014         154.767         -42.1012         154.766       -0.0258861         141.882
0.629                   -8.74416         175.638         -42.0394         152.187         -42.0392         152.185       -0.0261849         141.798
0.63                    -8.69814         177.757         -41.9861         149.626         -41.9857         149.624        -0.026488         141.715
0.631                   -8.60411         179.729         -41.9411          147.09         -41.9406         147.087       -0.0267956          141.63
0.632                   -8.46872        -178.494         -41.9041         144.582         -41.9036         144.578       -0.0271077         141.546
0.633                   -8.29958        -176.943         -41.8747         142.106         -41.8741         142.101       -0.0274244         141.461
0.634                   -8.10448        -175.636         -41.8524         139.665         -41.8519          139.66       -0.0277459         141.376
0.635                   -7.89077        -174.578         -41.8369         137.264         -41.8363         137.257       -0.0280722         141.291
0.636                   -7.66506        -173.764         -41.8274         134.903         -41.8269         134.895       -0.0284034         141.205
0.637                   -7.43295        -173.183         -41.8236         132.586         -41.8231         132.578       -0.0287396         141.119
0.638                   -7.19903        -172.821         -41.8247         130.315         -41.8243         130.306       -0.0290809         141.033
0.639                   -6.96692        -172.658         -41.8303         128.091         -41.8299         128.081       -0.0294273         140.946
0.64                    -6.73938        -172.676         -41.8396         125.916         -41.8393         125.905       -0.0297791         140.859
0.641                   -6.51845        -172.856         -41.8521         123.789         -41.8519         123.777       -0.0301361         140.772
0.642                   -6.30557        -173.182         -41.8672         121.711         -41.8671         121.699       -0.0304985         140.685
0.643                   -6.10171        -173.636         -41.8843         119.683         -41.8843          119.67       -0.0308663         140.597
0.644                   -5.90745        -174.204         -41.9029         117.703          -41.903          117.69       -0.0312394         140.509
0.645                   -5.72311        -174.874         -41.9223         115.771         -41.9225         115.759       -0.0316178          140.42
0.646                   -5.54876        -175.632         -41.9421         113.887         -41.9425         113.874       -0.0320013         140.331
0.647                   -5.38433        -176.469         -41.9619         112.048         -41.9624         112.036       -0.0323899         140.242
0.648                   -5.22966        -177.375         -41.9811         110.255         -41.9817         110.242       -0.0327831         140.152
0.649                   -5.08446        -178.344         -41.9993         108.504              -42         108.492       -0.0331808         140.062
0.65                    -4.94844        -179.368         -42.0162         106.794          -42.017         106.783       -0.0335824         139.972
0.651                   -4.82124         179.559         -42.0314         105.124         -42.0323         105.113       -0.0339874         139.881
0.652                   -4.70251         178.441         -42.0445         103.492         -42.0455         103.482       -0.0343954          139.79
0.653                   -4.59186         177.284         -42.0554         101.894         -42.0564         101.885       -0.0348058         139.698
0.654                   -4.48894          176.09         -42.0637         100.331         -42.0648         100.322       -0.0352181         139.606
0.655                   -4.39339         174.862         -42.0693         98.7988         -42.0704         98.7912       -0.0356322         139.514
0.656                   -4.30487         173.604         -42.0719         97.2959          -42.073         97.2891       -0.0360479         139.421
0.657                   -4.22304         172.317         -42.0714         95.8203         -42.0725         95.8144       -0.0364656         139.328
0.658                    -4.1476         171.003         -42.0676         94.3698         -42.0687         94.3647       -0.0368859         139.235
0.659                   -4.07826         169.664         -42.0605         92.9425         -42.0615         92.9382       -0.0373097         139.141
0.66                    -4.01473           168.3         -42.0499         91.5364         -42.0509         91.5329       -0.0377381         139.046
0.661                   -3.95678         166.913         -42.0359         90.1496         -42.0368         90.1468       -0.0381726         138.952
0.662                   -3.90416         165.504         -42.0182         88.7802         -42.0191          88.778       -0.0386144         138.856
0.663                   -3.85666         164.072          -41.997         87.4264         -41.9978         87.4248       -0.0390651         138.761
0.664                   -3.81408         162.619         -41.9723         86.0867          -41.973         86.0856       -0.0395256         138.665
0.665                   -3.77624         161.143         -41.9439         84.7593         -41.9445         84.7586       -0.0399972         138.568
0.666                   -3.74299         159.647          -41.912         83.4427         -41.9125         83.4424       -0.0404806         138.472
0.667                   -3.71417         158.128         -41.8765         82.1356         -41.8769         82.1355       -0.0409767         138.374
0.668                   -3.68966         156.588         -41.8375         80.8365         -41.8379         80.8366       -0.0414859         138.277
0.669                   -3.66933         155.025         -41.7951         79.5441         -41.7953         79.5443       -0.0420088         138.178
0.67                     -3.6531          153.44         -41.7492         78.2574         -41.7494         78.2576       -0.0425458          138.08
0.671                   -3.64087         151.831            -41.7         76.9751         -41.7001         76.9753       -0.0430974          137.98
0.672                   -3.63258         150.199         -41.6475         75.6963         -41.6475         75.6964       -0.0436638          137.88
0.673                   -3.62815         148.543         -41.5917         74.4199         -41.5916         74.4199       -0.0442455          137.78
0.674                   -3.62754         146.861         -41.5327         73.1451         -41.5326         73.1448       -0.0448428         137.679
0.675                   -3.63073         145.154         -41.4705          71.871         -41.4703         71.8705        -0.045456         137.578
0.676                   -3.63767         143.419         -41.4053         70.5967          -41.405          70.596       -0.0460857         137.476
0.677                   -3.64837         141.658         -41.3369         69.3216         -41.3367         69.3206       -0.0467321         137.374
0.678                   -3.66282         139.867         -41.2656         68.0448         -41.2654         68.0436       -0.0473957         137.271
0.679                   -3.68102         138.047         -41.1913         66.7657         -41.1911         66.7643       -0.0480767         137.167
0.68                    -3.70299         136.196         -41.1141         65.4836         -41.1138         65.4819       -0.0487755         137.063
0.681                   -3.72877         134.314          -41.034         64.1978         -41.0337         64.1959       -0.0494925         136.959
0.682                   -3.75839         132.397         -40.9511         62.9075         -40.9508         62.9054       -0.0502279         136.853
0.683                   -3.79189         130.447         -40.8653         61.6122         -40.8651         61.6099        -0.050982         136.747
0.684                   -3.82935          128.46         -40.7768          60.311         -40.7765         60.3086        -0.051755         136.641
0.685                   -3.87081         126.436         -40.6855         59.0033         -40.6853         59.0009       -0.0525471         136.534
0.686                   -3.91637         124.374         -40.5914         57.6883         -40.5913         57.6858       -0.0533583         136.426
0.687                   -3.96609          122.27         -40.4947         56.3652         -40.4946         56.3627       -0.0541889         136.318
0.688                   -4.02007         120.125         -40.3954         55.0332         -40.3953         55.0307       -0.0550388         136.209
0.689                    -4.0784         117.936         -40.2934         53.6914         -40.2934          53.689       -0.0559082           136.1
0.69                    -4.14119           115.7         -40.1889         52.3389         -40.1889         52.3367       -0.0567971          135.99
0.691                   -4.20856         113.418         -40.0819         50.9748         -40.0819         50.9727       -0.0577055         135.879
0.692                    -4.2806         111.085         -39.9724         49.5982         -39.9724         49.5962       -0.0586334         135.767
0.693                   -4.35745         108.701         -39.8606         48.2079         -39.8606         48.2062       -0.0595808         135.655
0.694                   -4.43922         106.263         -39.7465         46.8031         -39.7465         46.8015       -0.0605479         135.542
0.695                   -4.52604         103.769         -39.6302         45.3826         -39.6303         45.3813       -0.0615347         135.429
0.696                   -4.61802         101.215         -39.5119         43.9454          -39.512         43.9443       -0.0625412         135.315