! TOUCHSTONE file generated by CST MICROWAVE STUDIO
! Date and time: Sat Oct 24 11:12:32 2020
! Project name: Scenario_1_Circular_Tissue_in_Line.cst
! Parameters = {L_HA=400; MT=2.54; Rad_Dielectric=30; Rad_Lower=7.3; Rad_Upper=30; a_HA=580; a_WG=246; b_HA=500; b_WG=121; c_HA=0; c_WG=187; d_feed=85; dx1=363.52; h_feed=15; h_lower=18; h_upper=40}
! Header version: 2018
! Port assignment regex: !\s*Touchstone port\s*([0-9]+)\s*=\s*(CST MWS port|CST DS port)\s*([0-9]+|Zmin|Zmax)\s*\(\"(.*)\"\)(\s*mode\s*([0-9]+))?.*
! Touchstone port assignment:
! Touchstone port 1 = CST MWS port 1 ("")
! Touchstone port 2 = CST MWS port 2 ("")
# GHz S DB R 50
0.5                     -0.16824        -122.258         -58.6816         23.3925         -58.6816         23.3925      -0.00778069         151.112
0.501                  -0.172617        -122.684         -58.5582          21.909         -58.5582          21.909      -0.00784716         151.047
0.502                  -0.177079        -123.113         -58.4338          20.433         -58.4338         20.4331      -0.00791393         150.982
0.503                  -0.181628        -123.544         -58.3084         18.9645         -58.3084         18.9646        -0.007981         150.917
0.504                  -0.186266        -123.977          -58.182         17.5031          -58.182         17.5032      -0.00804837         150.851
0.505                  -0.190999        -124.413         -58.0547         16.0485         -58.0547         16.0486      -0.00811604         150.786
0.506                   -0.19583        -124.851         -57.9265         14.6005         -57.9264         14.6006      -0.00818403          150.72
0.507                  -0.200762        -125.292         -57.7973         13.1588         -57.7973         13.1589      -0.00825233         150.654
0.508                  -0.205799        -125.735         -57.6673         11.7231         -57.6673         11.7232      -0.00832095         150.589
0.509                  -0.210946        -126.181         -57.5365         10.2931         -57.5365         10.2932      -0.00838988         150.523
0.51                   -0.216207        -126.629         -57.4048         8.86855         -57.4048         8.86866      -0.00845914         150.457
0.511                  -0.221588         -127.08         -57.2723         7.44915         -57.2723         7.44927      -0.00852873         150.391
0.512                  -0.227091        -127.534          -57.139         6.03463          -57.139         6.03474      -0.00859865         150.325
0.513                  -0.232724         -127.99         -57.0049         4.62467         -57.0049         4.62479      -0.00866891         150.259
0.514                   -0.23849        -128.449           -56.87         3.21901           -56.87         3.21913      -0.00873951         150.193
0.515                  -0.244396        -128.911         -56.7344         1.81735         -56.7344         1.81747      -0.00881045         150.126
0.516                  -0.250447        -129.376          -56.598        0.419404          -56.598         0.41952      -0.00888175          150.06
0.517                  -0.256649        -129.844         -56.4609       -0.975125         -56.4609        -0.97501       -0.0089534         149.993
0.518                  -0.263009        -130.315          -56.323        -2.36652          -56.323        -2.36641      -0.00902541         149.927
0.519                  -0.269534        -130.789         -56.1845        -3.75508         -56.1844        -3.75497      -0.00909779          149.86
0.52                   -0.276229        -131.265         -56.0451        -5.14108         -56.0451        -5.14098      -0.00917054         149.794
0.521                  -0.283103        -131.745         -55.9051        -6.52483         -55.9051        -6.52473      -0.00924367         149.727
0.522                  -0.290162        -132.228         -55.7644        -7.90661         -55.7643        -7.90651      -0.00931718          149.66
0.523                  -0.297415        -132.714         -55.6229        -9.28671         -55.6229        -9.28661      -0.00939109         149.593
0.524                   -0.30487        -133.203         -55.4808        -10.6654         -55.4807        -10.6653      -0.00946539         149.526
0.525                  -0.312536        -133.696         -55.3379         -12.043         -55.3379        -12.0429       -0.0095401         149.459
0.526                  -0.320421        -134.192         -55.1943        -13.4198         -55.1943        -13.4198      -0.00961523         149.391
0.527                  -0.328534        -134.691         -55.0501        -14.7961         -55.0501        -14.7961      -0.00969078         149.324
0.528                  -0.336887        -135.193         -54.9051        -16.1722         -54.9051        -16.1721      -0.00976677         149.257
0.529                  -0.345488        -135.699         -54.7595        -17.5483         -54.7594        -17.5483      -0.00984319         149.189
0.53                   -0.354349        -136.208         -54.6131        -18.9248         -54.6131        -18.9248      -0.00992007         149.121
0.531                   -0.36348        -136.721         -54.4661         -20.302          -54.466         -20.302      -0.00999741         149.054
0.532                  -0.372894        -137.238         -54.3183        -21.6801         -54.3183        -21.6801       -0.0100752         148.986
0.533                  -0.382602        -137.758         -54.1699        -23.0595         -54.1699        -23.0594       -0.0101535         148.918
0.534                  -0.392618        -138.281         -54.0208        -24.4404         -54.0208        -24.4404       -0.0102323          148.85
0.535                  -0.402953        -138.808          -53.871        -25.8231          -53.871        -25.8231       -0.0103116         148.782
0.536                  -0.413623        -139.339         -53.7205         -27.208         -53.7205         -27.208       -0.0103915         148.714
0.537                   -0.42464        -139.874         -53.5693        -28.5954         -53.5693        -28.5953       -0.0104718         148.645
0.538                  -0.436021        -140.412         -53.4174        -29.9854         -53.4174        -29.9854       -0.0105528         148.577
0.539                  -0.447781        -140.955         -53.2649        -31.3785         -53.2649        -31.3785       -0.0106343         148.508
0.54                   -0.459935        -141.501         -53.1117         -32.775         -53.1117         -32.775       -0.0107164          148.44
0.541                  -0.472502        -142.051         -52.9578        -34.1751         -52.9578        -34.1751       -0.0107991         148.371
0.542                  -0.485497        -142.604         -52.8033        -35.5792         -52.8033        -35.5792       -0.0108824         148.302
0.543                   -0.49894        -143.162          -52.648        -36.9876          -52.648        -36.9876       -0.0109664         148.233
0.544                  -0.512848        -143.724         -52.4922        -38.4005         -52.4922        -38.4005       -0.0110511         148.164
0.545                  -0.527242         -144.29         -52.3357        -39.8183         -52.3357        -39.8183       -0.0111364         148.095
0.546                  -0.542143        -144.859         -52.1785        -41.2414         -52.1785        -41.2414       -0.0112225         148.026
0.547                  -0.557569        -145.433         -52.0208        -42.6699         -52.0208        -42.6699       -0.0113094         147.956
0.548                  -0.573545         -146.01         -51.8624        -44.1044         -51.8624        -44.1044        -0.011397         147.887
0.549                  -0.590091        -146.592         -51.7034        -45.5449         -51.7034        -45.5449       -0.0114855         147.817
0.55                   -0.607231        -147.177         -51.5438         -46.992         -51.5438         -46.992       -0.0115748         147.747
0.551                  -0.624988        -147.767         -51.3837        -48.4458         -51.3837        -48.4458       -0.0116649         147.677
0.552                  -0.643388         -148.36          -51.223        -49.9068          -51.223        -49.9068        -0.011756         147.607
0.553                  -0.662455        -148.958         -51.0618        -51.3752         -51.0618        -51.3752       -0.0118481         147.537
0.554                  -0.682216        -149.559            -50.9        -52.8514            -50.9        -52.8514       -0.0119411         147.467
0.555                  -0.702696        -150.164         -50.7378        -54.3356         -50.7378        -54.3356       -0.0120352         147.397
0.556                  -0.723922        -150.773         -50.5751        -55.8282         -50.5751        -55.8282       -0.0121304         147.326
0.557                  -0.745923        -151.386          -50.412        -57.3296          -50.412        -57.3296       -0.0122268         147.256
0.558                  -0.768726        -152.002         -50.2485          -58.84         -50.2485          -58.84       -0.0123243         147.185
0.559                  -0.792361        -152.622         -50.0846        -60.3597         -50.0846        -60.3597       -0.0124231         147.114
0.56                   -0.816854        -153.245         -49.9204        -61.8891         -49.9204        -61.8891       -0.0125231         147.043
0.561                  -0.842236        -153.872         -49.7558        -63.4285         -49.7558        -63.4285       -0.0126246         146.972
0.562                  -0.868536        -154.502          -49.591        -64.9781          -49.591        -64.9781       -0.0127275           146.9
0.563                  -0.895783        -155.135          -49.426        -66.5382          -49.426        -66.5382       -0.0128318         146.829
0.564                  -0.924006        -155.771         -49.2609        -68.1092         -49.2609        -68.1092       -0.0129378         146.758
0.565                  -0.953233         -156.41         -49.0956        -69.6913         -49.0956        -69.6913       -0.0130454         146.686
0.566                  -0.983494        -157.051         -48.9302        -71.2848         -48.9302        -71.2848       -0.0131547         146.614
0.567                   -1.01482        -157.695         -48.7649        -72.8899         -48.7649        -72.8899       -0.0132658         146.542
0.568                   -1.04722        -158.342         -48.5996        -74.5069         -48.5996        -74.5069       -0.0133788          146.47
0.569                   -1.08075         -158.99         -48.4344         -76.136         -48.4344         -76.136       -0.0134937         146.398
0.57                    -1.11541         -159.64         -48.2693        -77.7774         -48.2693        -77.7774       -0.0136107         146.325
0.571                   -1.15123        -160.291         -48.1045        -79.4313         -48.1045        -79.4313       -0.0137299         146.253
0.572                   -1.18823        -160.944           -47.94         -81.098           -47.94         -81.098       -0.0138512          146.18
0.573                   -1.22644        -161.597         -47.7759        -82.7774         -47.7759        -82.7774        -0.013975         146.107
0.574                   -1.26586        -162.251         -47.6123        -84.4699         -47.6123        -84.4699       -0.0141011         146.034
0.575                   -1.30651        -162.905         -47.4492        -86.1755         -47.4492        -86.1755       -0.0142298         145.961
0.576                   -1.34841        -163.559         -47.2868        -87.8942         -47.2868        -87.8942       -0.0143612         145.888
0.577                   -1.39155        -164.213          -47.125        -89.6262          -47.125        -89.6262       -0.0144953         145.814
0.578                   -1.43594        -164.866          -46.964        -91.3714          -46.964        -91.3714       -0.0146322         145.741
0.579                   -1.48159        -165.517          -46.804        -93.1299          -46.804        -93.1299       -0.0147721         145.667
0.58                    -1.52848        -166.167         -46.6449        -94.9015         -46.6449        -94.9015       -0.0149151         145.593
0.581                    -1.5766        -166.814         -46.4868        -96.6863         -46.4868        -96.6863       -0.0150612         145.519
0.582                   -1.62594        -167.459           -46.33         -98.484           -46.33         -98.484       -0.0152106         145.445
0.583                   -1.67648        -168.101         -46.1744        -100.295         -46.1744        -100.295       -0.0153634          145.37
0.584                   -1.72818         -168.74         -46.0201        -102.118         -46.0201        -102.118       -0.0155196         145.296
0.585                   -1.78102        -169.375         -45.8673        -103.953         -45.8673        -103.953       -0.0156793         145.221
0.586                   -1.83496        -170.005          -45.716        -105.801          -45.716        -105.801       -0.0158428         145.146
0.587                   -1.88994        -170.631         -45.5664        -107.661         -45.5664        -107.661       -0.0160099         145.071
0.588                   -1.94592        -171.251         -45.4185        -109.532         -45.4185        -109.532       -0.0161809         144.996
0.589                   -2.00283        -171.867         -45.2725        -111.413         -45.2725        -111.414       -0.0163557          144.92
0.59                     -2.0606        -172.476         -45.1283        -113.306         -45.1283        -113.306       -0.0165345         144.845
0.591                   -2.11918        -173.079         -44.9861        -115.208         -44.9861        -115.208       -0.0167173         144.769
0.592                   -2.17846        -173.676          -44.846         -117.12          -44.846         -117.12       -0.0169042         144.693
0.593                   -2.23838        -174.266         -44.7081        -119.041         -44.7081        -119.041       -0.0170952         144.617
0.594                   -2.29884        -174.849         -44.5723         -120.97         -44.5723         -120.97       -0.0172903         144.541
0.595                   -2.35974        -175.425         -44.4389        -122.906         -44.4389        -122.907       -0.0174895         144.464
0.596                   -2.42099        -175.994         -44.3078         -124.85         -44.3078         -124.85        -0.017693         144.388
0.597                   -2.48247        -176.556         -44.1791        -126.799         -44.1791        -126.799       -0.0179007         144.311
0.598                    -2.5441        -177.111         -44.0528        -128.754         -44.0528        -128.754       -0.0181125         144.234
0.599                   -2.60575        -177.658          -43.929        -130.714          -43.929        -130.714       -0.0183285         144.157
0.6                     -2.66732        -178.199         -43.8077        -132.677         -43.8077        -132.677       -0.0185487          144.08
0.601                   -2.72871        -178.733          -43.689        -134.643         -43.6889        -134.643       -0.0187729         144.002
0.602                   -2.78981        -179.261         -43.5727        -136.612         -43.5727        -136.612       -0.0190013         143.924
0.603                   -2.85051        -179.782         -43.4591        -138.581         -43.4591        -138.581       -0.0192337         143.846
0.604                   -2.91071         179.701          -43.348        -140.551          -43.348        -140.552       -0.0194701         143.768
0.605                   -2.97033          179.19         -43.2394        -142.521         -43.2394        -142.521       -0.0197105          143.69
0.606                   -3.02927         178.684         -43.1333         -144.49         -43.1333         -144.49       -0.0199547         143.612
0.607                   -3.08746         178.181         -43.0297        -146.456         -43.0297        -146.456       -0.0202027         143.533
0.608                   -3.14481         177.682         -42.9286        -148.419         -42.9286        -148.419       -0.0204544         143.454
0.609                   -3.20127         177.185         -42.8298        -150.379         -42.8298        -150.379       -0.0207098         143.375
0.61                    -3.25677         176.689         -42.7334        -152.335         -42.7334        -152.335       -0.0209688         143.296
0.611                   -3.31129         176.194         -42.6393        -154.285         -42.6393        -154.285       -0.0212313         143.216
0.612                   -3.36477           175.7         -42.5474        -156.229         -42.5474        -156.229       -0.0214973         143.137
0.613                   -3.41721         175.204         -42.4576        -158.167         -42.4576        -158.167       -0.0217666         143.057
0.614                   -3.46859         174.707         -42.3699        -160.098         -42.3699        -160.098       -0.0220392         142.977
0.615                    -3.5189         174.207         -42.2842        -162.022         -42.2842        -162.022       -0.0223151         142.897
0.616                   -3.56817         173.704         -42.2004        -163.937         -42.2004        -163.937       -0.0225941         142.816
0.617                   -3.61641         173.196         -42.1184        -165.843         -42.1184        -165.843       -0.0228763         142.735
0.618                   -3.66366         172.682          -42.038         -167.74          -42.038         -167.74       -0.0231615         142.654
0.619                   -3.70996         172.163         -41.9593        -169.628         -41.9593        -169.628       -0.0234497         142.573
0.62                    -3.75537         171.636         -41.8821        -171.506         -41.8821        -171.506       -0.0237409         142.492
0.621                   -3.79994         171.102         -41.8062        -173.374         -41.8062        -173.374       -0.0240351          142.41
0.622                   -3.84376         170.559         -41.7317        -175.232         -41.7317        -175.232       -0.0243322         142.328
0.623                   -3.88689         170.007         -41.6584        -177.079         -41.6584        -177.079       -0.0246322         142.246
0.624                   -3.92943         169.444         -41.5861        -178.915         -41.5861        -178.915       -0.0249351         142.164
0.625                   -3.97147         168.872         -41.5148          179.26         -41.5148          179.26       -0.0252409         142.081
0.626                   -4.01311         168.287         -41.4444         177.445         -41.4444         177.445       -0.0255496         141.998
0.627                   -4.05446         167.691         -41.3748         175.641         -41.3748         175.641       -0.0258612         141.915
0.628                   -4.09562         167.083         -41.3059         173.848         -41.3059         173.848       -0.0261758         141.832
0.629                   -4.13671         166.461         -41.2376         172.066         -41.2376         172.066       -0.0264934         141.748
0.63                    -4.17784         165.827         -41.1697         170.294         -41.1697         170.294        -0.026814         141.664
0.631                   -4.21914         165.179         -41.1023         168.533         -41.1023         168.533       -0.0271377          141.58
0.632                   -4.26071         164.517         -41.0352         166.782         -41.0352         166.782       -0.0274644         141.496
0.633                    -4.3027          163.84         -40.9683         165.042         -40.9683         165.042       -0.0277944         141.411
0.634                   -4.34522         163.149         -40.9016         163.311         -40.9016         163.311       -0.0281276         141.326
0.635                   -4.38839         162.443          -40.835          161.59          -40.835          161.59       -0.0284642         141.241
0.636                   -4.43236         161.722         -40.7683         159.879         -40.7683         159.879       -0.0288041         141.155
0.637                   -4.47723         160.986         -40.7017         158.176         -40.7017         158.176       -0.0291476         141.069
0.638                   -4.52315         160.235         -40.6349         156.482         -40.6349         156.482       -0.0294946         140.983
0.639                   -4.57024         159.469         -40.5679         154.797         -40.5679         154.797       -0.0298453         140.897
0.64                    -4.61862         158.687         -40.5007          153.12         -40.5007          153.12       -0.0301998          140.81
0.641                   -4.66844          157.89         -40.4332         151.451         -40.4332         151.451       -0.0305583         140.723
0.642                   -4.71982         157.077         -40.3654         149.789         -40.3654         149.789       -0.0309207         140.635
0.643                   -4.77288         156.249         -40.2972         148.134         -40.2972         148.134       -0.0312873         140.548
0.644                   -4.82777         155.405         -40.2287         146.486         -40.2287         146.486       -0.0316582          140.46
0.645                   -4.88462         154.547         -40.1596         144.844         -40.1596         144.844       -0.0320335         140.371
0.646                   -4.94355         153.673         -40.0902         143.207         -40.0902         143.207       -0.0324133         140.282
0.647                    -5.0047         152.784         -40.0202         141.577         -40.0202         141.577       -0.0327978         140.193
0.648                   -5.06821         151.879         -39.9497         139.951         -39.9497         139.951       -0.0331872         140.104
0.649                   -5.13422         150.961         -39.8787          138.33         -39.8787          138.33       -0.0335815         140.014
0.65                    -5.20286         150.027         -39.8072         136.713         -39.8072         136.713        -0.033981         139.924
0.651                   -5.27427         149.079         -39.7351           135.1         -39.7351         135.101       -0.0343858         139.833
0.652                    -5.3486         148.117         -39.6624         133.491         -39.6624         133.491       -0.0347961         139.743
0.653                     -5.426          147.14         -39.5892         131.885         -39.5892         131.885        -0.035212         139.651
0.654                    -5.5066          146.15         -39.5154         130.282         -39.5154         130.282       -0.0356337          139.56
0.655                   -5.59057         145.147         -39.4411         128.681         -39.4411         128.681       -0.0360615         139.468
0.656                   -5.67805          144.13         -39.3663         127.082         -39.3663         127.082       -0.0364954         139.375
0.657                   -5.76922         143.101         -39.2909         125.485         -39.2909         125.485       -0.0369357         139.282
0.658                   -5.86422         142.058          -39.215         123.889          -39.215         123.889       -0.0373827         139.189
0.659                   -5.96322         141.004         -39.1387         122.295         -39.1387         122.295       -0.0378364         139.095
0.66                    -6.06641         139.938         -39.0618         120.701         -39.0618         120.701       -0.0382971         139.001
0.661                   -6.17394         138.861         -38.9845         119.108         -38.9845         119.108        -0.038765         138.907
0.662                   -6.28602         137.774         -38.9068         117.515         -38.9068         117.515       -0.0392403         138.812
0.663                   -6.40282         136.676         -38.8287         115.922         -38.8287         115.922       -0.0397233         138.717
0.664                   -6.52453         135.568         -38.7502         114.329         -38.7502         114.329       -0.0402142         138.621
0.665                   -6.65137         134.451         -38.6714         112.736         -38.6714         112.736       -0.0407132         138.525
0.666                   -6.78353         133.326         -38.5923         111.141         -38.5923         111.141       -0.0412206         138.428
0.667                   -6.92124         132.194         -38.5129         109.546         -38.5129         109.546       -0.0417367         138.331
0.668                   -7.06471         131.054         -38.4333          107.95         -38.4333          107.95       -0.0422616         138.233
0.669                   -7.21418         129.909         -38.3535         106.353         -38.3535         106.353       -0.0427957         138.135
0.67                    -7.36989         128.758         -38.2735         104.755         -38.2735         104.755       -0.0433393         138.036
0.671                    -7.5321         127.604         -38.1935         103.156         -38.1935         103.156       -0.0438926         137.937
0.672                   -7.70106         126.447         -38.1134         101.555         -38.1134         101.555       -0.0444558         137.838
0.673                   -7.87706         125.287         -38.0333         99.9525         -38.0333         99.9525       -0.0450295         137.738
0.674                   -8.06037         124.128         -37.9531         98.3488         -37.9531         98.3488       -0.0456137         137.637
0.675                   -8.25131         122.969         -37.8731         96.7436         -37.8731         96.7436       -0.0462089         137.536
0.676                   -8.45018         121.813         -37.7932          95.137         -37.7932          95.137       -0.0468153         137.434
0.677                   -8.65731         120.661         -37.7134          93.529         -37.7134          93.529       -0.0474334         137.332
0.678                   -8.87306         119.515         -37.6338         91.9198         -37.6338         91.9198       -0.0480634         137.229
0.679                   -9.09778         118.376         -37.5544         90.3093         -37.5544         90.3093       -0.0487057         137.126
0.68                    -9.33187         117.249         -37.4753         88.6978         -37.4753         88.6978       -0.0493607         137.022
0.681                   -9.57574         116.133         -37.3965         87.0853         -37.3965         87.0853       -0.0500288         136.917
0.682                   -9.82981         115.033          -37.318          85.472          -37.318          85.472       -0.0507103         136.812
0.683                   -10.0945         113.952           -37.24         83.8582           -37.24         83.8582       -0.0514056         136.706
0.684                   -10.3704         112.892         -37.1623          82.244         -37.1623          82.244       -0.0521151           136.6
0.685                   -10.6579         111.858         -37.0851         80.6296         -37.0851         80.6296       -0.0528393         136.493
0.686                   -10.9576         110.853         -37.0084         79.0153         -37.0084         79.0153       -0.0535785         136.385
0.687                   -11.2701         109.883         -36.9321         77.4014         -36.9321         77.4014       -0.0543332         136.277
0.688                    -11.596         108.952         -36.8564         75.7881         -36.8564         75.7881       -0.0551039         136.168
0.689                   -11.9358         108.067         -36.7812         74.1757         -36.7812         74.1757       -0.0558911         136.059
0.69                    -12.2904         107.234         -36.7066         72.5646         -36.7066         72.5646       -0.0566951         135.949
0.691                   -12.6604         106.462         -36.6325         70.9551         -36.6325         70.9551       -0.0575164         135.838
0.692                   -13.0465         105.759         -36.5591         69.3475         -36.5591         69.3475       -0.0583556         135.726
0.693                   -13.4495         105.136         -36.4862         67.7421         -36.4862         67.7421       -0.0592132         135.614
0.694                   -13.8702         104.605         -36.4138         66.1394         -36.4138         66.1394       -0.0600897         135.501
0.695                   -14.3094         104.179         -36.3421         64.5396         -36.3421         64.5396       -0.0609856         135.387
0.696                   -14.7677         103.876         -36.2709         62.9432         -36.2709         62.9432       -0.0619014         135.272
0.697                   -15.2459         103.714         -36.2003         61.3504         -36.2003         61.3504       -0.0628378         135.157