! TOUCHSTONE file generated by CST MICROWAVE STUDIO
! Date and time: Sat Oct 24 11:15:57 2020
! Project name: Scenario_1_Circular_Tissue_in_Line.cst
! Parameters = {L_HA=400; MT=2.54; Rad_Dielectric=30; Rad_Lower=7.3; Rad_Upper=30; a_HA=580; a_WG=246; b_HA=500; b_WG=121; c_HA=0; c_WG=187; d_feed=85; dx1=606; h_feed=15; h_lower=18; h_upper=40}
! Header version: 2018
! Port assignment regex: !\s*Touchstone port\s*([0-9]+)\s*=\s*(CST MWS port|CST DS port)\s*([0-9]+|Zmin|Zmax)\s*\(\"(.*)\"\)(\s*mode\s*([0-9]+))?.*
! Touchstone port assignment:
! Touchstone port 1 = CST MWS port 1 ("")
! Touchstone port 2 = CST MWS port 2 ("")
# GHz S DB R 50
0.5                    -0.162239        -122.459         -61.0108        -112.109         -61.0099        -112.107       -0.0076063         151.121
0.501                  -0.167611        -122.888         -60.9563        -113.809         -60.9523        -113.769      -0.00768631         151.056
0.502                  -0.173103        -123.318          -60.899        -115.521         -60.8921        -115.443       -0.0077666         150.991
0.503                  -0.178717         -123.75         -60.8389        -117.243         -60.8294        -117.127      -0.00784719         150.925
0.504                  -0.184456        -124.185          -60.776        -118.976         -60.7641        -118.822      -0.00792805          150.86
0.505                  -0.190322        -124.621         -60.7102        -120.719         -60.6962        -120.527      -0.00800919         150.794
0.506                  -0.196317         -125.06         -60.6416        -122.471         -60.6257        -122.243      -0.00809061         150.729
0.507                  -0.202445        -125.501         -60.5701        -124.232         -60.5524        -123.968       -0.0081723         150.663
0.508                  -0.208707        -125.944         -60.4957        -126.003         -60.4766        -125.703      -0.00825426         150.597
0.509                  -0.215107        -126.389         -60.4183        -127.781          -60.398        -127.447      -0.00833649         150.531
0.51                   -0.221647        -126.836         -60.3381        -129.567         -60.3167        -129.199      -0.00841899         150.466
0.511                   -0.22833        -127.285         -60.2549        -131.361         -60.2328         -130.96      -0.00850175           150.4
0.512                   -0.23516        -127.737         -60.1688        -133.162         -60.1461        -132.729      -0.00858477         150.334
0.513                  -0.242139        -128.191         -60.0799        -134.969         -60.0568        -134.505      -0.00866806         150.267
0.514                  -0.249271        -128.647          -59.988        -136.782         -59.9647        -136.288      -0.00875162         150.201
0.515                  -0.256559        -129.105         -59.8933        -138.601           -59.87        -138.079      -0.00883544         150.135
0.516                  -0.264007        -129.566         -59.7957        -140.425         -59.7725        -139.876      -0.00891953         150.069
0.517                  -0.271618         -130.03         -59.6953        -142.254         -59.6725        -141.679      -0.00900388         150.002
0.518                  -0.279396        -130.495         -59.5921        -144.088         -59.5698        -143.488      -0.00908851         149.935
0.519                  -0.287345        -130.963         -59.4862        -145.925         -59.4645        -145.302      -0.00917341         149.869
0.52                    -0.29547        -131.434         -59.3775        -147.767         -59.3566        -147.122      -0.00925859         149.802
0.521                  -0.303773        -131.907         -59.2662        -149.611         -59.2461        -148.946      -0.00934405         149.735
0.522                  -0.312261        -132.382         -59.1522        -151.459         -59.1331        -150.776      -0.00942979         149.668
0.523                  -0.320937         -132.86         -59.0357        -153.309         -59.0177        -152.609      -0.00951583         149.601
0.524                  -0.329805        -133.341         -58.9166        -155.162         -58.8998        -154.447      -0.00960216         149.534
0.525                  -0.338872        -133.824          -58.795        -157.017         -58.7795        -156.288       -0.0096888         149.467
0.526                  -0.348142         -134.31         -58.6711        -158.874         -58.6569        -158.133      -0.00977574           149.4
0.527                  -0.357621        -134.799         -58.5448        -160.733          -58.532        -159.981      -0.00986301         149.333
0.528                  -0.367313         -135.29         -58.4162        -162.593         -58.4048        -161.832       -0.0099506         149.265
0.529                  -0.377225        -135.784         -58.2853        -164.454         -58.2754        -163.687       -0.0100385         149.198
0.53                   -0.387363        -136.281         -58.1524        -166.317         -58.1439        -165.544       -0.0101268          149.13
0.531                  -0.397733        -136.781         -58.0173         -168.18         -58.0103        -167.404       -0.0102155         149.062
0.532                  -0.408341        -137.283         -57.8802        -170.045         -57.8747        -169.266       -0.0103045         148.995
0.533                  -0.419195        -137.789         -57.7411         -171.91         -57.7371         -171.13       -0.0103939         148.927
0.534                  -0.430301        -138.297         -57.6002        -173.776         -57.5977        -172.997       -0.0104836         148.859
0.535                  -0.441666        -138.808         -57.4575        -175.643         -57.4564        -174.867       -0.0105739         148.791
0.536                  -0.453299        -139.323          -57.313         -177.51         -57.3133        -176.738       -0.0106645         148.723
0.537                  -0.465206         -139.84         -57.1669        -179.378         -57.1686        -178.611       -0.0107556         148.654
0.538                  -0.477397         -140.36         -57.0193         178.754         -57.0222         179.513       -0.0108471         148.586
0.539                   -0.48988        -140.884         -56.8701         176.884         -56.8743         177.636       -0.0109391         148.517
0.54                   -0.502664         -141.41         -56.7195         175.015         -56.7249         175.756       -0.0110317         148.449
0.541                  -0.515758         -141.94         -56.5675         173.144          -56.574         173.875       -0.0111247          148.38
0.542                  -0.529172        -142.473         -56.4143         171.273         -56.4219         171.991       -0.0112183         148.311
0.543                  -0.542915        -143.009         -56.2599           169.4         -56.2684         170.105       -0.0113124         148.242
0.544                  -0.556999        -143.549         -56.1043         167.527         -56.1138         168.217       -0.0114072         148.173
0.545                  -0.571435        -144.091         -55.9478         165.653          -55.958         166.327       -0.0115025         148.104
0.546                  -0.586233        -144.637         -55.7902         163.777         -55.8012         164.434       -0.0115985         148.035
0.547                  -0.601406        -145.187         -55.6318           161.9         -55.6434         162.539       -0.0116952         147.966
0.548                  -0.616965         -145.74         -55.4726         160.021         -55.4847         160.642       -0.0117926         147.896
0.549                  -0.632924        -146.296         -55.3126         158.141         -55.3252         158.742       -0.0118907         147.826
0.55                   -0.649297        -146.855          -55.152         156.259         -55.1649         156.839       -0.0119895         147.757
0.551                  -0.666096        -147.419         -54.9907         154.375         -55.0039         154.933       -0.0120892         147.687
0.552                  -0.683336        -147.985          -54.829          152.49         -54.8424         153.025       -0.0121896         147.617
0.553                  -0.701033        -148.555         -54.6668         150.601         -54.6803         151.113       -0.0122909         147.547
0.554                  -0.719201        -149.129         -54.5043         148.711         -54.5177         149.199       -0.0123931         147.477
0.555                  -0.737857        -149.706         -54.3414         146.817         -54.3548         147.281       -0.0124963         147.406
0.556                  -0.757018        -150.287         -54.1784         144.921         -54.1916          145.36       -0.0126004         147.336
0.557                  -0.776701        -150.872         -54.0152         143.022         -54.0281         143.435       -0.0127055         147.265
0.558                  -0.796923         -151.46         -53.8519          141.12         -53.8644         141.507       -0.0128116         147.195
0.559                  -0.817704        -152.051         -53.6886         139.215         -53.7007         139.575       -0.0129189         147.124
0.56                   -0.839063        -152.647         -53.5254         137.306          -53.537         137.639       -0.0130273         147.053
0.561                  -0.861018        -153.246         -53.3623         135.394         -53.3733           135.7       -0.0131368         146.982
0.562                  -0.883592        -153.848         -53.1994         133.478         -53.2097         133.756       -0.0132476         146.911
0.563                  -0.906805        -154.454         -53.0368         131.558         -53.0463         131.809       -0.0133596          146.84
0.564                  -0.930678        -155.064         -52.8746         129.634         -52.8832         129.857        -0.013473         146.768
0.565                  -0.955234        -155.677         -52.7127         127.707         -52.7205         127.901       -0.0135877         146.696
0.566                  -0.980496        -156.293         -52.5513         125.775         -52.5582         125.941       -0.0137038         146.625
0.567                   -1.00649        -156.913         -52.3905         123.839         -52.3963         123.977       -0.0138214         146.553
0.568                   -1.03323        -157.537         -52.2302         121.898          -52.235         122.009       -0.0139405         146.481
0.569                   -1.06075        -158.164         -52.0707         119.953         -52.0743         120.036       -0.0140612         146.409
0.57                    -1.08908        -158.794         -51.9118         118.004         -51.9143         118.059       -0.0141834         146.336
0.571                   -1.11823        -159.427         -51.7538          116.05          -51.755         116.077       -0.0143074         146.264
0.572                   -1.14823        -160.063         -51.5966         114.092         -51.5966         114.092       -0.0144331         146.192
0.573                   -1.17911        -160.703         -51.4404          112.13          -51.439         112.102       -0.0145606         146.119
0.574                   -1.21089        -161.345         -51.2851         110.163         -51.2824         110.108       -0.0146899         146.046
0.575                    -1.2436         -161.99         -51.1308         108.191         -51.1268          108.11       -0.0148211         145.973
0.576                   -1.27727        -162.638         -50.9777         106.215         -50.9722         106.108       -0.0149543           145.9
0.577                   -1.31191        -163.288         -50.8257         104.235         -50.8188         104.102       -0.0150894         145.826
0.578                   -1.34756        -163.941         -50.6749          102.25         -50.6665         102.093       -0.0152267         145.753
0.579                   -1.38423        -164.595         -50.5253         100.261         -50.5155          100.08       -0.0153661         145.679
0.58                    -1.42195        -165.252         -50.3771         98.2684         -50.3657         98.0637       -0.0155076         145.606
0.581                   -1.46073         -165.91         -50.2301         96.2715         -50.2173         96.0442       -0.0156514         145.532
0.582                   -1.50061         -166.57         -50.0846         94.2708         -50.0703         94.0216       -0.0157976         145.457
0.583                   -1.54159        -167.231         -49.9405         92.2665         -49.9247         91.9963        -0.015946         145.383
0.584                   -1.58369        -167.893         -49.7979         90.2586         -49.7805         89.9684       -0.0160969         145.309
0.585                   -1.62693        -168.556         -49.6568         88.2474         -49.6379         87.9381       -0.0162503         145.234
0.586                   -1.67131        -169.218         -49.5173         86.2331         -49.4968         85.9058       -0.0164062         145.159
0.587                   -1.71684        -169.882         -49.3793         84.2159         -49.3573         83.8717       -0.0165648         145.085
0.588                   -1.76353        -170.544          -49.243          82.196         -49.2194          81.836       -0.0167259         145.009
0.589                   -1.81137        -171.206         -49.1083         80.1737         -49.0832         79.7991       -0.0168898         144.934
0.59                    -1.86036        -171.868         -48.9752         78.1491         -48.9486         77.7613       -0.0170564         144.859
0.591                   -1.91049        -172.528         -48.8439         76.1225         -48.8158         75.7228       -0.0172259         144.783
0.592                   -1.96174        -173.186         -48.7142         74.0943         -48.6846          73.684       -0.0173982         144.707
0.593                    -2.0141        -173.842         -48.5863         72.0646         -48.5552         71.6452       -0.0175734         144.631
0.594                   -2.06753        -174.496         -48.4601         70.0338         -48.4276         69.6067       -0.0177516         144.555
0.595                   -2.12202        -175.147         -48.3356         68.0021         -48.3018         67.5689       -0.0179328         144.479
0.596                   -2.17751        -175.795         -48.2129         65.9697         -48.1777          65.532       -0.0181171         144.402
0.597                   -2.23397        -176.439         -48.0919         63.9371         -48.0554         63.4965       -0.0183045         144.326
0.598                   -2.29134         -177.08         -47.9727         61.9044         -47.9349         61.4625        -0.018495         144.249
0.599                   -2.34957        -177.717         -47.8552          59.872         -47.8163         59.4304       -0.0186888         144.172
0.6                     -2.40859        -178.349         -47.7394         57.8401         -47.6994         57.4006       -0.0188858         144.095
0.601                   -2.46834        -178.977         -47.6254          55.809         -47.5843         55.3732       -0.0190861         144.017
0.602                   -2.52873          -179.6         -47.5131          53.779         -47.4711         53.3487       -0.0192897          143.94
0.603                    -2.5897         179.782         -47.4024         51.7503         -47.3596         51.3271       -0.0194966         143.862
0.604                   -2.65116         179.168         -47.2935         49.7232         -47.2499         49.3089        -0.019707         143.784
0.605                   -2.71302          178.56         -47.1862          47.698          -47.142         47.2942       -0.0199207         143.705
0.606                   -2.77518         177.956         -47.0805         45.6748         -47.0359         45.2832        -0.020138         143.627
0.607                   -2.83757         177.358         -46.9764          43.654         -46.9315         43.2761       -0.0203587         143.548
0.608                   -2.90008         176.764         -46.8739         41.6356         -46.8289          41.273       -0.0205829          143.47
0.609                   -2.96263         176.174         -46.7729           39.62          -46.728         39.2741       -0.0208107         143.391
0.61                    -3.02512         175.588         -46.6735         37.6073         -46.6288         37.2795       -0.0210421         143.311
0.611                   -3.08748         175.007         -46.5755         35.5976         -46.5312         35.2891        -0.021277         143.232
0.612                   -3.14961         174.428         -46.4789         33.5912         -46.4354         33.3029       -0.0215155         143.152
0.613                   -3.21146         173.852         -46.3837         31.5881         -46.3412         31.3211       -0.0217577         143.072
0.614                   -3.27294         173.278         -46.2899         29.5886         -46.2486         29.3435       -0.0220036         142.992
0.615                     -3.334         172.706         -46.1974         27.5926         -46.1575         27.3699       -0.0222531         142.912
0.616                   -3.39459         172.134         -46.1061         25.6003          -46.068         25.4003       -0.0225064         142.831
0.617                   -3.45467         171.562         -46.0161         23.6117           -45.98         23.4344       -0.0227633          142.75
0.618                   -3.51422          170.99         -45.9272         21.6269         -45.8934         21.4721        -0.023024         142.669
0.619                   -3.57322         170.416         -45.8394         19.6459         -45.8082         19.5131       -0.0232885         142.588
0.62                    -3.63167         169.839         -45.7527         17.6687         -45.7244         17.5571       -0.0235567         142.507
0.621                   -3.68958         169.259         -45.6671         15.6954         -45.6417         15.6039       -0.0238287         142.425
0.622                   -3.74696         168.676         -45.5824         13.7258         -45.5603         13.6532       -0.0241046         142.343
0.623                   -3.80386         168.087         -45.4986           11.76           -45.48         11.7046       -0.0243842         142.261
0.624                   -3.86032         167.492         -45.4156         9.79788         -45.4007          9.7579       -0.0246678         142.178
0.625                   -3.91641         166.891         -45.3335         7.83938         -45.3223         7.81283       -0.0249552         142.096
0.626                   -3.97218         166.282         -45.2522         5.88442         -45.2447         5.86912       -0.0252465         142.013
0.627                   -4.02772         165.666         -45.1715         3.93289         -45.1678         3.92659       -0.0255418         141.929
0.628                   -4.08313         165.041         -45.0915          1.9847         -45.0915         1.98505       -0.0258411         141.846
0.629                   -4.13849         164.406         -45.0121       0.0397158         -45.0158       0.0443861       -0.0261443         141.762
0.63                    -4.19392         163.761         -44.9332        -1.90218         -44.9404        -1.89547       -0.0264516         141.678
0.631                   -4.24953         163.106         -44.8548        -3.84112         -44.8653        -3.83455       -0.0267629         141.594
0.632                   -4.30544          162.44         -44.7767        -5.77723         -44.7904        -5.77283       -0.0270784         141.509
0.633                   -4.36177         161.762         -44.6991        -7.71065         -44.7156        -7.71022        -0.027398         141.424
0.634                   -4.41866         161.073         -44.6218        -9.64151         -44.6407        -9.64663       -0.0277218         141.339
0.635                   -4.47623         160.371         -44.5447        -11.5699         -44.5658        -11.5819       -0.0280499         141.254
0.636                   -4.53461         159.657         -44.4677        -13.4961         -44.4907        -13.5159       -0.0283823         141.168
0.637                   -4.59396         158.931          -44.391          -15.42         -44.4154        -15.4484        -0.028719         141.082
0.638                   -4.65441         158.191         -44.3143        -17.3419         -44.3398        -17.3792       -0.0290602         140.996
0.639                   -4.71609         157.439         -44.2376        -19.2618         -44.2639        -19.3081       -0.0294059         140.909
0.64                    -4.77916         156.675         -44.1609        -21.1797         -44.1877         -21.235       -0.0297561         140.822
0.641                   -4.84375         155.897         -44.0842        -23.0959          -44.111        -23.1597        -0.030111         140.735
0.642                   -4.91001         155.106         -44.0073        -25.0104          -44.034         -25.082       -0.0304706         140.647
0.643                   -4.97808         154.303         -43.9303        -26.9231         -43.9565        -27.0019       -0.0308351          140.56
0.644                   -5.04811         153.487         -43.8531        -28.8342         -43.8786        -28.9191       -0.0312044         140.471
0.645                   -5.12024         152.658         -43.7757        -30.7436         -43.8003        -30.8337       -0.0315788         140.383
0.646                   -5.19462         151.817          -43.698        -32.6515         -43.7216        -32.7456       -0.0319583         140.294
0.647                   -5.27139         150.965           -43.62        -34.5578         -43.6424        -34.6548        -0.032343         140.205
0.648                    -5.3507           150.1         -43.5418        -36.4625         -43.5629        -36.5613       -0.0327331         140.115
0.649                   -5.43269         149.224         -43.4632        -38.3657          -43.483        -38.4651       -0.0331286         140.025
0.65                    -5.51752         148.336         -43.3844        -40.2673         -43.4028        -40.3663       -0.0335297         139.935
0.651                   -5.60533         147.438         -43.3052        -42.1674         -43.3222        -42.2651       -0.0339366         139.844
0.652                   -5.69628          146.53         -43.2256         -44.066         -43.2412        -44.1614       -0.0343493         139.753
0.653                   -5.79051         145.611         -43.1458         -45.963           -43.16        -46.0555        -0.034768         139.662
0.654                   -5.88818         144.684         -43.0656        -47.8586         -43.0785        -47.9474       -0.0351929          139.57
0.655                   -5.98944         143.747         -42.9851        -49.7527         -42.9968        -49.8372       -0.0356241         139.478
0.656                   -6.09446         142.802         -42.9044        -51.6453         -42.9148        -51.7252       -0.0360619         139.385
0.657                   -6.20339         141.849         -42.8234        -53.5366         -42.8327        -53.6114       -0.0365062         139.293
0.658                   -6.31639         140.889         -42.7421        -55.4265         -42.7503         -55.496       -0.0369575         139.199
0.659                   -6.43364         139.923         -42.6606        -57.3151         -42.6678        -57.3792       -0.0374157         139.105
0.66                    -6.55531         138.952         -42.5788        -59.2025         -42.5852         -59.261       -0.0378812         139.011
0.661                   -6.68155         137.975          -42.497        -61.0887         -42.5025        -61.1417       -0.0383541         138.917
0.662                   -6.81257         136.995         -42.4149        -62.9737         -42.4197        -63.0213       -0.0388347         138.822
0.663                   -6.94852         136.012         -42.3328        -64.8577         -42.3369           -64.9       -0.0393231         138.726
0.664                    -7.0896         135.027         -42.2505        -66.7407          -42.254        -66.7779       -0.0398195          138.63
0.665                     -7.236         134.042         -42.1682        -68.6227         -42.1711        -68.6551       -0.0403242         138.534
0.666                    -7.3879         133.057         -42.0859        -70.5039         -42.0883        -70.5316       -0.0408375         138.437
0.667                   -7.54551         132.074         -42.0035        -72.3842         -42.0056        -72.4076       -0.0413595          138.34
0.668                   -7.70902         131.094         -41.9212        -74.2637         -41.9229        -74.2831       -0.0418905         138.242
0.669                   -7.87863          130.12          -41.839        -76.1425         -41.8403        -76.1581       -0.0424308         138.144
0.67                    -8.05456         129.151         -41.7569        -78.0205         -41.7579        -78.0328       -0.0429807         138.045
0.671                     -8.237         128.191         -41.6749        -79.8979         -41.6756         -79.907       -0.0435403         137.946
0.672                   -8.42618         127.242          -41.593        -81.7744         -41.5936        -81.7808         -0.04411         137.846
0.673                    -8.6223         126.305         -41.5114        -83.6503         -41.5117        -83.6542         -0.04469         137.746
0.674                   -8.82559         125.383           -41.43        -85.5254         -41.4301        -85.5272       -0.0452808         137.645
0.675                   -9.03625         124.478         -41.3488        -87.3997         -41.3488        -87.3996       -0.0458825         137.544
0.676                    -9.2545         123.593         -41.2679        -89.2731         -41.2678        -89.2714       -0.0464954         137.442
0.677                   -9.48055         122.732         -41.1872        -91.1456          -41.187        -91.1425       -0.0471199          137.34
0.678                    -9.7146         121.897         -41.1069        -93.0171         -41.1067        -93.0129       -0.0477564         137.237
0.679                   -9.95686         121.092          -41.027        -94.8874         -41.0266        -94.8823       -0.0484051         137.134
0.68                    -10.2075         120.321         -40.9474        -96.7564          -40.947        -96.7506       -0.0490664          137.03
0.681                   -10.4667         119.589         -40.8681         -98.624         -40.8677        -98.6177       -0.0497407         136.925
0.682                   -10.7346         118.899         -40.7893         -100.49         -40.7888        -100.483       -0.0504283          136.82
0.683                   -11.0113         118.258         -40.7109        -102.354         -40.7104        -102.348       -0.0511296         136.714
0.684                    -11.297          117.67         -40.6329        -104.217         -40.6324         -104.21       -0.0518449         136.608
0.685                   -11.5916         117.142         -40.5553        -106.077         -40.5548         -106.07       -0.0525747         136.501
0.686                   -11.8952          116.68         -40.4782        -107.935         -40.4777        -107.928       -0.0533194         136.393
0.687                   -12.2076         116.293         -40.4015         -109.79          -40.401        -109.784       -0.0540794         136.285
0.688                   -12.5287         115.987         -40.3253        -111.643         -40.3248        -111.636       -0.0548551         136.176
0.689                   -12.8582         115.771         -40.2495        -113.492          -40.249        -113.486        -0.055647         136.066
0.69                    -13.1957         115.655         -40.1741        -115.338         -40.1737        -115.332       -0.0564555         135.956
0.691                   -13.5405         115.649         -40.0992         -117.18         -40.0988        -117.175        -0.057281         135.845
0.692                   -13.8919         115.763         -40.0247        -119.019         -40.0243        -119.014       -0.0581241         135.733
0.693                   -14.2489         116.008         -39.9505        -120.853         -39.9502        -120.849       -0.0589852         135.621
0.694                   -14.6101         116.396         -39.8768        -122.683         -39.8764        -122.679       -0.0598648         135.508
0.695                   -14.9737         116.938         -39.8034        -124.508         -39.8031        -124.505       -0.0607634         135.394
0.696                   -15.3378         117.646         -39.7303        -126.328         -39.7301        -126.325       -0.0616815          135.28
0.697                   -15.6998         118.531         -39.6576        -128.143         -39.6573         -128.14       -0.0626195         135.164