! TOUCHSTONE file generated by CST MICROWAVE STUDIO
! Date and time: Sat Oct 24 11:16:04 2020
! Project name: Scenario_1_Circular_Tissue_in_Line.cst
! Parameters = {L_HA=400; MT=2.54; Rad_Dielectric=30; Rad_Lower=7.3; Rad_Upper=30; a_HA=580; a_WG=246; b_HA=500; b_WG=121; c_HA=0; c_WG=187; d_feed=85; dx1=623.32; h_feed=15; h_lower=18; h_upper=40}
! Header version: 2018
! Port assignment regex: !\s*Touchstone port\s*([0-9]+)\s*=\s*(CST MWS port|CST DS port)\s*([0-9]+|Zmin|Zmax)\s*\(\"(.*)\"\)(\s*mode\s*([0-9]+))?.*
! Touchstone port assignment:
! Touchstone port 1 = CST MWS port 1 ("")
! Touchstone port 2 = CST MWS port 2 ("")
# GHz S DB R 50
0.5                    -0.165822        -122.422         -61.1185        -123.277         -61.1185        -123.277      -0.00763682         151.118
0.501                  -0.171244        -122.844         -61.0515        -124.906         -61.0515        -124.906      -0.00770387         151.053
0.502                  -0.176746        -123.268         -60.9821        -126.545         -60.9821        -126.545      -0.00777155         150.987
0.503                  -0.182331        -123.695         -60.9102        -128.193         -60.9101        -128.193      -0.00783988         150.922
0.504                  -0.188003        -124.124         -60.8357         -129.85         -60.8357         -129.85      -0.00790885         150.856
0.505                  -0.193765        -124.556         -60.7588        -131.516         -60.7587        -131.517      -0.00797846         150.791
0.506                  -0.199621        -124.989         -60.6793        -133.192         -60.6792        -133.192      -0.00804871         150.725
0.507                  -0.205573        -125.425         -60.5973        -134.875         -60.5972        -134.876      -0.00811961          150.66
0.508                  -0.211627        -125.864         -60.5128        -136.567         -60.5126        -136.567      -0.00819115         150.594
0.509                  -0.217786        -126.304         -60.4257        -138.267         -60.4256        -138.267      -0.00826333         150.528
0.51                   -0.224054        -126.748         -60.3361        -139.974         -60.3359        -139.975      -0.00833616         150.462
0.511                  -0.230436        -127.194          -60.244        -141.689         -60.2438         -141.69      -0.00840963         150.396
0.512                  -0.236935        -127.642         -60.1494        -143.411         -60.1492        -143.412      -0.00848375          150.33
0.513                  -0.243558        -128.093         -60.0523         -145.14          -60.052         -145.14      -0.00855852         150.264
0.514                  -0.250307        -128.547         -59.9527        -146.875         -59.9524        -146.876      -0.00863393         150.198
0.515                   -0.25719        -129.003         -59.8506        -148.617         -59.8504        -148.618      -0.00870999         150.132
0.516                   -0.26421        -129.462         -59.7462        -150.366         -59.7458        -150.366      -0.00878671         150.065
0.517                  -0.271373        -129.923         -59.6392         -152.12         -59.6389         -152.12      -0.00886407         149.999
0.518                  -0.278686        -130.388         -59.5299        -153.879         -59.5296         -153.88      -0.00894209         149.932
0.519                  -0.286153        -130.855         -59.4183        -155.645         -59.4179        -155.645      -0.00902076         149.866
0.52                   -0.293782        -131.325         -59.3043        -157.416          -59.304        -157.416      -0.00910008         149.799
0.521                  -0.301578        -131.798         -59.1881        -159.192         -59.1877        -159.192      -0.00918006         149.732
0.522                  -0.309548        -132.273         -59.0696        -160.973         -59.0692        -160.973       -0.0092607         149.666
0.523                    -0.3177        -132.752         -58.9488        -162.759         -58.9484        -162.759      -0.00934199         149.599
0.524                   -0.32604        -133.234          -58.826        -164.549         -58.8255         -164.55      -0.00942394         149.531
0.525                  -0.334577        -133.718          -58.701        -166.345         -58.7005        -166.345      -0.00950655         149.464
0.526                  -0.343317        -134.206         -58.5739        -168.145         -58.5735        -168.145      -0.00958983         149.397
0.527                  -0.352269        -134.697         -58.4448        -169.949         -58.4443         -169.95      -0.00967377          149.33
0.528                  -0.361442        -135.191         -58.3137        -171.758         -58.3133        -171.759      -0.00975837         149.262
0.529                  -0.370844        -135.688         -58.1807        -173.571         -58.1803        -173.572      -0.00984365         149.195
0.53                   -0.380485        -136.188         -58.0459        -175.389         -58.0454        -175.389      -0.00992959         149.127
0.531                  -0.390374        -136.692         -57.9092         -177.21         -57.9087        -177.211       -0.0100162          149.06
0.532                  -0.400521        -137.198         -57.7708        -179.036         -57.7703        -179.037       -0.0101035         148.992
0.533                  -0.410936        -137.709         -57.6306         179.133         -57.6302         179.133       -0.0101915         148.924
0.534                  -0.421631        -138.222         -57.4889         177.298         -57.4884         177.298       -0.0102801         148.856
0.535                  -0.432616        -138.739         -57.3456         175.459         -57.3451         175.459       -0.0103695         148.788
0.536                  -0.443902        -139.259         -57.2008         173.616         -57.2003         173.616       -0.0104595          148.72
0.537                  -0.455503        -139.782         -57.0545         171.768          -57.054         171.768       -0.0105502         148.651
0.538                  -0.467429         -140.31         -56.9068         169.916         -56.9064         169.915       -0.0106416         148.583
0.539                  -0.479695         -140.84         -56.7579         168.059         -56.7574         168.058       -0.0107337         148.515
0.54                   -0.492313        -141.374         -56.6076         166.197         -56.6072         166.197       -0.0108266         148.446
0.541                  -0.505297        -141.912         -56.4563         164.331         -56.4558          164.33       -0.0109201         148.377
0.542                  -0.518663        -142.453         -56.3038         162.459         -56.3033         162.459       -0.0110144         148.308
0.543                  -0.532423        -142.997         -56.1502         160.583         -56.1498         160.583       -0.0111094          148.24
0.544                  -0.546595        -143.546         -55.9957         158.702         -55.9953         158.701       -0.0112051         148.171
0.545                  -0.561193        -144.098         -55.8403         156.815         -55.8398         156.814       -0.0113016         148.101
0.546                  -0.576234        -144.653         -55.6841         154.922         -55.6836         154.922       -0.0113988         148.032
0.547                  -0.591735        -145.212         -55.5271         153.025         -55.5266         153.024       -0.0114969         147.963
0.548                  -0.607714        -145.775         -55.3694         151.121          -55.369          151.12       -0.0115957         147.893
0.549                  -0.624188        -146.342         -55.2112         149.212         -55.2107         149.211       -0.0116953         147.824
0.55                   -0.641175        -146.912         -55.0524         147.296          -55.052         147.295       -0.0117957         147.754
0.551                  -0.658694        -147.485         -54.8931         145.374         -54.8927         145.374       -0.0118969         147.684
0.552                  -0.676766        -148.063         -54.7335         143.446         -54.7331         143.446       -0.0119991         147.614
0.553                  -0.695409        -148.643         -54.5736         141.512         -54.5732         141.511        -0.012102         147.544
0.554                  -0.714643        -149.228         -54.4135          139.57         -54.4131          139.57       -0.0122059         147.474
0.555                   -0.73449        -149.816         -54.2532         137.622         -54.2529         137.622       -0.0123107         147.404
0.556                   -0.75497        -150.407         -54.0929         135.667         -54.0926         135.667       -0.0124164         147.334
0.557                  -0.776105        -151.002         -53.9327         133.705         -53.9323         133.705       -0.0125232         147.263
0.558                  -0.797916          -151.6         -53.7725         131.736         -53.7722         131.735       -0.0126309         147.192
0.559                  -0.820425        -152.202         -53.6125         129.759         -53.6122         129.759       -0.0127397         147.122
0.56                   -0.843654        -152.807         -53.4528         127.775         -53.4525         127.774       -0.0128495         147.051
0.561                  -0.867624        -153.415         -53.2935         125.783         -53.2932         125.783       -0.0129605          146.98
0.562                  -0.892358        -154.026         -53.1346         123.784         -53.1344         123.783       -0.0130726         146.909
0.563                  -0.917878         -154.64         -52.9763         121.776         -52.9761         121.776        -0.013186         146.837
0.564                  -0.944205        -155.257         -52.8186         119.761         -52.8184          119.76       -0.0133006         146.766
0.565                   -0.97136        -155.877         -52.6616         117.738         -52.6614         117.737       -0.0134165         146.694
0.566                  -0.999364        -156.499         -52.5054         115.706         -52.5053         115.706       -0.0135338         146.623
0.567                   -1.02824        -157.124         -52.3502         113.667         -52.3501         113.667       -0.0136525         146.551
0.568                     -1.058        -157.751          -52.196         111.619         -52.1959         111.619       -0.0137727         146.479
0.569                   -1.08867        -158.381         -52.0428         109.563         -52.0428         109.563       -0.0138944         146.407
0.57                    -1.12026        -159.012         -51.8909         107.499         -51.8909         107.499       -0.0140178         146.335
0.571                    -1.1528        -159.645         -51.7404         105.427         -51.7403         105.427       -0.0141428         146.262
0.572                   -1.18628         -160.28         -51.5913         103.347         -51.5913         103.347       -0.0142696          146.19
0.573                   -1.22074        -160.916         -51.4437         101.258         -51.4437         101.258       -0.0143983         146.117
0.574                   -1.25617        -161.553         -51.2979         99.1607         -51.2979          99.161       -0.0145288         146.044
0.575                   -1.29259        -162.191         -51.1539         97.0555         -51.1539         97.0559       -0.0146613         145.971
0.576                      -1.33         -162.83         -51.0119          94.942          -51.012         94.9426       -0.0147959         145.898
0.577                   -1.36841        -163.469         -50.8721         92.8204         -50.8722         92.8212       -0.0149327         145.825
0.578                   -1.40782        -164.108         -50.7347         90.6908         -50.7349         90.6918       -0.0150717         145.751
0.579                   -1.44821        -164.747            -50.6         88.5533         -50.6002         88.5546        -0.015213         145.678
0.58                    -1.48959        -165.386         -50.4682         86.4082         -50.4684         86.4099       -0.0153567         145.604
0.581                   -1.53195        -166.024         -50.3396         84.2558         -50.3399          84.258       -0.0155028          145.53
0.582                   -1.57528        -166.661         -50.2149          82.097         -50.2152         82.0996       -0.0156515         145.456
0.583                   -1.61954        -167.297         -50.0943         79.9326         -50.0947          79.936       -0.0158029         145.382
0.584                   -1.66473        -167.931         -49.9788         77.7647         -49.9792         77.7689        -0.015957         145.308
0.585                   -1.71082        -168.564          -49.869         75.5963         -49.8694         75.6015       -0.0161138         145.233
0.586                   -1.75777        -169.194         -49.7661         73.4326         -49.7665          73.439       -0.0162735         145.158
0.587                   -1.80556        -169.822         -49.6714         71.2825         -49.6717         71.2904       -0.0164361         145.083
0.588                   -1.85413        -170.447         -49.5863         69.1609         -49.5864         69.1705       -0.0166017         145.008
0.589                   -1.90346         -171.07         -49.5119          67.092         -49.5117         67.1034       -0.0167703         144.933
0.59                    -1.95348         -171.69         -49.4483          65.114         -49.4476          65.127       -0.0169419         144.858
0.591                   -2.00415        -172.307         -49.3922         63.2804         -49.3908         63.2936       -0.0171168         144.782
0.592                   -2.05541         -172.92         -49.3338         61.6476         -49.3315         61.6587       -0.0172947         144.707
0.593                   -2.10721         -173.53         -49.2541         60.2335         -49.2512         60.2387       -0.0174759         144.631
0.594                   -2.15948        -174.137         -49.1312         58.9507         -49.1282         58.9475       -0.0176603         144.555
0.595                   -2.21216         -174.74         -48.9565         57.6005         -48.9543         57.5904        -0.017848         144.478
0.596                   -2.26518         -175.34          -48.747         55.9967         -48.7458         55.9841        -0.018039         144.402
0.597                   -2.31847        -175.936         -48.5314         54.0935          -48.531         54.0823       -0.0182332         144.325
0.598                   -2.37197         -176.53         -48.3302         51.9644         -48.3303         51.9561       -0.0184308         144.249
0.599                   -2.42562         -177.12         -48.1504         49.7094         -48.1507         49.7038       -0.0186316         144.172
0.6                     -2.47933        -177.707         -47.9908         47.4028         -47.9911         47.3993       -0.0188358         144.094
0.601                   -2.53306        -178.292         -47.8476         45.0873         -47.8479         45.0852       -0.0190432         144.017
0.602                   -2.58674        -178.874         -47.7169         42.7833         -47.7172         42.7821        -0.019254          143.94
0.603                    -2.6403        -179.455         -47.5956         40.4995         -47.5958         40.4988       -0.0194681         143.862
0.604                   -2.69371         179.966         -47.4814         38.2382         -47.4815         38.2379       -0.0196854         143.784
0.605                    -2.7469         179.388         -47.3726         35.9993         -47.3727         35.9991        -0.019906         143.706
0.606                   -2.79983         178.811         -47.2681         33.7813         -47.2681         33.7812       -0.0201299         143.628
0.607                   -2.85247         178.234         -47.1671         31.5826         -47.1671         31.5826       -0.0203571         143.549
0.608                   -2.90479         177.656          -47.069         29.4015          -47.069         29.4016       -0.0205874          143.47
0.609                   -2.95676         177.078         -46.9733         27.2366         -46.9732         27.2367        -0.020821         143.391
0.61                    -3.00838         176.497         -46.8796         25.0866         -46.8796         25.0866       -0.0210578         143.312
0.611                   -3.05963         175.915         -46.7879         22.9503         -46.7878         22.9503       -0.0212979         143.233
0.612                   -3.11051         175.329         -46.6977         20.8269         -46.6976         20.8269       -0.0215411         143.153
0.613                   -3.16105          174.74          -46.609         18.7156         -46.6089         18.7156       -0.0217875         143.074
0.614                   -3.21125         174.147         -46.5216         16.6156         -46.5215         16.6156       -0.0220371         142.994
0.615                   -3.26114         173.549         -46.4354         14.5265         -46.4353         14.5265       -0.0222899         142.913
0.616                   -3.31077         172.946         -46.3502         12.4478         -46.3502         12.4477       -0.0225459         142.833
0.617                   -3.36017         172.337         -46.2661          10.379          -46.266         10.3789       -0.0228051         142.752
0.618                    -3.4094         171.721         -46.1828         8.31971         -46.1827         8.31964       -0.0230675         142.672
0.619                   -3.45852         171.097         -46.1003         6.26965         -46.1003         6.26958       -0.0233331         142.591
0.62                    -3.50759         170.466         -46.0186         4.22851         -46.0186         4.22843        -0.023602         142.509
0.621                   -3.55669         169.827         -45.9376         2.19597         -45.9375         2.19589       -0.0238742         142.428
0.622                   -3.60591         169.179         -45.8571        0.171768         -45.8571        0.171692       -0.0241496         142.346
0.623                   -3.65531         168.521         -45.7772        -1.84436         -45.7771        -1.84443       -0.0244283         142.264
0.624                     -3.705         167.854         -45.6977        -3.85266         -45.6977        -3.85273       -0.0247104         142.181
0.625                   -3.75508         167.177         -45.6187        -5.85339         -45.6187        -5.85345       -0.0249959         142.099
0.626                   -3.80563          166.49           -45.54        -7.84678           -45.54        -7.84685       -0.0252848         142.016
0.627                   -3.85677         165.792         -45.4617         -9.8331         -45.4616        -9.83316       -0.0255773         141.933
0.628                   -3.90861         165.082         -45.3836        -11.8126         -45.3836        -11.8126       -0.0258732          141.85
0.629                   -3.96125         164.362         -45.3057        -13.7854         -45.3057        -13.7855       -0.0261727         141.766
0.63                     -4.0148          163.63          -45.228        -15.7519          -45.228         -15.752       -0.0264759         141.682
0.631                   -4.06939         162.886         -45.1504        -17.7123         -45.1504        -17.7124       -0.0267827         141.598
0.632                   -4.12513         162.131         -45.0729        -19.6669         -45.0729        -19.6669       -0.0270934         141.514
0.633                   -4.18214         161.364         -44.9955        -21.6158         -44.9955        -21.6158       -0.0274079         141.429
0.634                   -4.24054         160.585         -44.9181        -23.5593         -44.9181        -23.5594       -0.0277263         141.344
0.635                   -4.30046         159.795         -44.8407        -25.4978         -44.8407        -25.4978       -0.0280487         141.259
0.636                   -4.36201         158.992         -44.7633        -27.4313         -44.7633        -27.4313       -0.0283752         141.173
0.637                   -4.42533         158.178         -44.6858        -29.3602         -44.6858        -29.3602       -0.0287058         141.088
0.638                   -4.49054         157.352         -44.6082        -31.2848         -44.6082        -31.2848       -0.0290408         141.001
0.639                   -4.55777         156.514         -44.5305        -33.2052         -44.5305        -33.2052         -0.02938         140.915
0.64                    -4.62715         155.665         -44.4527        -35.1218         -44.4527        -35.1218       -0.0297238         140.828
0.641                   -4.69881         154.805         -44.3747        -37.0347         -44.3747        -37.0347       -0.0300721         140.741
0.642                   -4.77288         153.934         -44.2966        -38.9443         -44.2966        -38.9443       -0.0304251         140.654
0.643                    -4.8495         153.052         -44.2184        -40.8507         -44.2184        -40.8507       -0.0307829         140.566
0.644                    -4.9288          152.16         -44.1399        -42.7542         -44.1399        -42.7542       -0.0311456         140.478
0.645                    -5.0109         151.258         -44.0613        -44.6551         -44.0613        -44.6551       -0.0315133          140.39
0.646                   -5.09597         150.346         -43.9825        -46.5535         -43.9825        -46.5535       -0.0318861         140.301
0.647                   -5.18412         149.424         -43.9035        -48.4497         -43.9035        -48.4496       -0.0322643         140.212
0.648                   -5.27551         148.494         -43.8243        -50.3439         -43.8243        -50.3438       -0.0326479         140.123
0.649                   -5.37026         147.556         -43.7449        -52.2362         -43.7449        -52.2362        -0.033037         140.033
0.65                    -5.46854         146.609         -43.6653         -54.127         -43.6653         -54.127       -0.0334318         139.943
0.651                   -5.57049         145.656         -43.5856        -56.0164         -43.5856        -56.0164       -0.0338325         139.852
0.652                   -5.67624         144.696         -43.5057        -57.9046         -43.5057        -57.9046       -0.0342392         139.761
0.653                   -5.78596          143.73         -43.4257        -59.7918         -43.4257        -59.7917       -0.0346521          139.67
0.654                   -5.89979         142.759         -43.3455         -61.678         -43.3455         -61.678       -0.0350713         139.579
0.655                   -6.01789         141.783         -43.2652        -63.5636         -43.2652        -63.5635        -0.035497         139.487
0.656                   -6.14042         140.804         -43.1848        -65.4485         -43.1848        -65.4485       -0.0359294         139.394
0.657                   -6.26753         139.822         -43.1043         -67.333         -43.1043         -67.333       -0.0363686         139.302
0.658                   -6.39938         138.839         -43.0237        -69.2171         -43.0237        -69.2171       -0.0368149         139.209
0.659                   -6.53613         137.855         -42.9431         -71.101         -42.9431         -71.101       -0.0372684         139.115
0.66                    -6.67794         136.872         -42.8624        -72.9847         -42.8624        -72.9847       -0.0377294         139.021
0.661                   -6.82499         135.891         -42.7818        -74.8683         -42.7818        -74.8683       -0.0381979         138.927
0.662                   -6.97743         134.913         -42.7011        -76.7519         -42.7011        -76.7518       -0.0386743         138.832
0.663                   -7.13542         133.939         -42.6205        -78.6354         -42.6205        -78.6354       -0.0391588         138.737
0.664                   -7.29914         132.972           -42.54         -80.519           -42.54        -80.5189       -0.0396515         138.641
0.665                   -7.46875         132.013         -42.4596        -82.4025         -42.4596        -82.4025       -0.0401527         138.545
0.666                   -7.64441         131.064         -42.3792        -84.2861         -42.3792        -84.2861       -0.0406627         138.448
0.667                   -7.82628         130.126         -42.2991        -86.1696         -42.2991        -86.1696       -0.0411816         138.351
0.668                   -8.01453         129.202         -42.2191         -88.053         -42.2191         -88.053       -0.0417097         138.254
0.669                    -8.2093         128.293         -42.1393        -89.9363         -42.1393        -89.9363       -0.0422473         138.156
0.67                    -8.41074         127.404         -42.0597        -91.8193         -42.0597        -91.8193       -0.0427947         138.057
0.671                     -8.619         126.535         -41.9803        -93.7019         -41.9803        -93.7019        -0.043352         137.958
0.672                    -8.8342          125.69         -41.9013        -95.5841         -41.9013        -95.5841       -0.0439195         137.859
0.673                   -9.05648         124.872         -41.8225        -97.4657         -41.8225        -97.4657       -0.0444976         137.759
0.674                   -9.28592         124.084          -41.744        -99.3464          -41.744        -99.3464       -0.0450866         137.658
0.675                   -9.52263          123.33         -41.6659        -101.226         -41.6659        -101.226       -0.0456867         137.557
0.676                   -9.76666         122.613         -41.5881        -103.105         -41.5881        -103.105       -0.0462981         137.456
0.677                    -10.018         121.937         -41.5107        -104.982         -41.5107        -104.982       -0.0469214         137.354
0.678                   -10.2768         121.308         -41.4337        -106.858         -41.4337        -106.858       -0.0475567         137.251
0.679                   -10.5429         120.729          -41.357        -108.732          -41.357        -108.732       -0.0482043         137.148
0.68                    -10.8163         120.206         -41.2808        -110.604         -41.2808        -110.604       -0.0488647         137.044
0.681                   -11.0967         119.743         -41.2049        -112.473         -41.2049        -112.473       -0.0495382          136.94
0.682                   -11.3841         119.347         -41.1295         -114.34         -41.1295         -114.34       -0.0502251         136.835
0.683                   -11.6781         119.025         -41.0544        -116.204         -41.0544        -116.204       -0.0509257          136.73
0.684                   -11.9783         118.781         -40.9798        -118.065         -40.9798        -118.065       -0.0516405         136.624
0.685                   -12.2843         118.624         -40.9055        -119.922         -40.9055        -119.922       -0.0523699         136.517
0.686                   -12.5954          118.56         -40.8316        -121.776         -40.8316        -121.776       -0.0531142          136.41
0.687                   -12.9108         118.596         -40.7581        -123.626         -40.7581        -123.626       -0.0538738         136.302
0.688                   -13.2296         118.741          -40.685        -125.471          -40.685        -125.471       -0.0546491         136.193
0.689                   -13.5506             119         -40.6121        -127.312         -40.6121        -127.312       -0.0554406         136.084
0.69                    -13.8724         119.382         -40.5395        -129.148         -40.5395        -129.148       -0.0562487         135.974
0.691                   -14.1935         119.893         -40.4673        -130.979         -40.4673        -130.979       -0.0570739         135.864
0.692                   -14.5119         120.539         -40.3952        -132.804         -40.3952        -132.804       -0.0579165         135.752
0.693                   -14.8255         121.325         -40.3233        -134.623         -40.3233        -134.623       -0.0587772          135.64
0.694                   -15.1318         122.254         -40.2517        -136.437         -40.2517        -136.437       -0.0596563         135.528
0.695                   -15.4282         123.327         -40.1801        -138.244         -40.1801        -138.244       -0.0605543         135.414
0.696                   -15.7119         124.542         -40.1086        -140.045         -40.1086        -140.045       -0.0614718           135.3
0.697                   -15.9799         125.894         -40.0371         -141.84         -40.0371         -141.84       -0.0624093         135.185