! TOUCHSTONE file generated by CST MICROWAVE STUDIO
! Date and time: Sat Oct 24 11:16:11 2020
! Project name: Scenario_1_Circular_Tissue_in_Line.cst
! Parameters = {L_HA=400; MT=2.54; Rad_Dielectric=30; Rad_Lower=7.3; Rad_Upper=30; a_HA=580; a_WG=246; b_HA=500; b_WG=121; c_HA=0; c_WG=187; d_feed=85; dx1=640.64; h_feed=15; h_lower=18; h_upper=40}
! Header version: 2018
! Port assignment regex: !\s*Touchstone port\s*([0-9]+)\s*=\s*(CST MWS port|CST DS port)\s*([0-9]+|Zmin|Zmax)\s*\(\"(.*)\"\)(\s*mode\s*([0-9]+))?.*
! Touchstone port assignment:
! Touchstone port 1 = CST MWS port 1 ("")
! Touchstone port 2 = CST MWS port 2 ("")
# GHz S DB R 50
0.5                     -0.16625         -122.41         -61.3081        -134.015         -61.2712        -134.393       -0.0076932         151.127
0.501                  -0.171501        -122.833         -61.2381        -135.801         -61.1859        -136.155      -0.00770853         151.062
0.502                  -0.176818        -123.257         -61.1648        -137.593         -61.0979        -137.919      -0.00772507         150.997
0.503                  -0.182203        -123.684         -61.0882        -139.388         -61.0072        -139.685      -0.00774282         150.931
0.504                  -0.187662        -124.114         -61.0083        -141.188         -60.9137        -141.452       -0.0077618         150.866
0.505                  -0.193197        -124.545         -60.9252        -142.992         -60.8177        -143.221        -0.007782           150.8
0.506                  -0.198815         -124.98         -60.8388        -144.798          -60.719        -144.991      -0.00780343         150.735
0.507                  -0.204519        -125.417         -60.7493        -146.608         -60.6179        -146.762      -0.00782611         150.669
0.508                  -0.210315        -125.856         -60.6566        -148.419         -60.5142        -148.533      -0.00785002         150.603
0.509                  -0.216207        -126.298         -60.5609        -150.232         -60.4082        -150.305      -0.00787518         150.538
0.51                     -0.2222        -126.742         -60.4622        -152.047         -60.2998        -152.077      -0.00790159         150.472
0.511                  -0.228301         -127.19         -60.3605        -153.863         -60.1891         -153.85      -0.00792925         150.406
0.512                  -0.234515         -127.64          -60.256        -155.679         -60.0761        -155.622      -0.00795817          150.34
0.513                  -0.240847        -128.092         -60.1486        -157.495          -59.961        -157.395      -0.00798836         150.274
0.514                  -0.247305        -128.548         -60.0385        -159.312         -59.8437        -159.167      -0.00801981         150.207
0.515                  -0.253894        -129.006         -59.9257        -161.129         -59.7244         -160.94      -0.00805252         150.141
0.516                  -0.260621        -129.467         -59.8103        -162.945         -59.6032        -162.712      -0.00808651         150.075
0.517                  -0.267494        -129.931         -59.6923        -164.761           -59.48        -164.484      -0.00812176         150.008
0.518                  -0.274519        -130.398          -59.572        -166.576         -59.3549        -166.257       -0.0081583         149.942
0.519                  -0.281705        -130.868         -59.4492         -168.39          -59.228        -168.029      -0.00819611         149.875
0.52                   -0.289059        -131.341         -59.3241        -170.203         -59.0994        -169.802       -0.0082352         149.808
0.521                  -0.296589        -131.817         -59.1969        -172.016         -58.9691        -171.575      -0.00827557         149.741
0.522                  -0.304304        -132.296         -59.0675        -173.827         -58.8371        -173.348      -0.00831722         149.674
0.523                  -0.312214        -132.778          -58.936        -175.638         -58.7037        -175.122      -0.00836016         149.607
0.524                  -0.320326        -133.264         -58.8025        -177.448         -58.5687        -176.896      -0.00840438          149.54
0.525                  -0.328652        -133.752         -58.6672        -179.256         -58.4323        -178.671       -0.0084499         149.473
0.526                    -0.3372        -134.244           -58.53         178.935         -58.2945         179.553       -0.0084967         149.406
0.527                  -0.345982        -134.739         -58.3911         177.128         -58.1553         177.776       -0.0085448         149.338
0.528                  -0.355009        -135.237         -58.2506         175.321          -58.015         175.997      -0.00859421         149.271
0.529                  -0.364291        -135.739         -58.1084         173.514         -57.8734         174.217      -0.00864491         149.203
0.53                    -0.37384        -136.244         -57.9648         171.708         -57.7306         172.435      -0.00869694         149.136
0.531                  -0.383669        -136.753         -57.8197         169.902         -57.5868         170.651      -0.00875029         149.068
0.532                  -0.393789        -137.265         -57.6732         168.095         -57.4419         168.865      -0.00880497             149
0.533                  -0.404215         -137.78         -57.5255         166.288          -57.296         167.077      -0.00886102         148.932
0.534                  -0.414959        -138.299         -57.3765          164.48         -57.1492         165.285      -0.00891844         148.864
0.535                  -0.426035        -138.822         -57.2264         162.671         -57.0016         163.491      -0.00897728         148.796
0.536                  -0.437459        -139.347         -57.0753         160.861          -56.853         161.693      -0.00903756         148.728
0.537                  -0.449244        -139.877         -56.9231         159.049         -56.7038         159.892      -0.00909934          148.66
0.538                  -0.461407         -140.41           -56.77         157.236         -56.5538         158.087      -0.00916268         148.591
0.539                  -0.473962        -140.947          -56.616         155.421         -56.4031         156.278      -0.00922765         148.523
0.54                   -0.486928        -141.487         -56.4612         153.603         -56.2518         154.464      -0.00929435         148.454
0.541                  -0.500319        -142.031         -56.3057         151.782         -56.0999         152.646      -0.00936289         148.385
0.542                  -0.514155        -142.578         -56.1495         149.959         -55.9476         150.824      -0.00943343         148.317
0.543                  -0.528452        -143.129         -55.9927         148.132         -55.7947         148.996      -0.00950612         148.248
0.544                  -0.543229        -143.684         -55.8354         146.301         -55.6415         147.162      -0.00958121         148.179
0.545                  -0.558505        -144.242         -55.6776         144.467         -55.4878         145.323      -0.00965893          148.11
0.546                  -0.574298        -144.804         -55.5194         142.628         -55.3339         143.478      -0.00973961         148.041
0.547                  -0.590629        -145.369         -55.3608         140.784         -55.1797         141.627      -0.00982361         147.971
0.548                  -0.607516        -145.938         -55.2019         138.936         -55.0253         139.769      -0.00991137         147.902
0.549                  -0.624982        -146.511         -55.0428         137.082         -54.8707         137.905       -0.0100034         147.833
0.55                   -0.643045        -147.086         -54.8835         135.223         -54.7161         136.033       -0.0101002         147.763
0.551                  -0.661726        -147.665         -54.7241         133.358         -54.5614         134.155       -0.0102025         147.693
0.552                  -0.681047        -148.248         -54.5646         131.487         -54.4066         132.269        -0.010311         147.624
0.553                  -0.701028        -148.833         -54.4052          129.61          -54.252         130.376       -0.0104263         147.554
0.554                  -0.721691        -149.422         -54.2458         127.725         -54.0974         128.475       -0.0105491         147.484
0.555                  -0.743056        -150.014         -54.0866         125.834          -53.943         126.566       -0.0106802         147.414
0.556                  -0.765144        -150.609         -53.9276         123.936         -53.7888         124.649       -0.0108201         147.344
0.557                  -0.787975        -151.207         -53.7688          122.03         -53.6349         122.724       -0.0109692         147.273
0.558                   -0.81157        -151.808         -53.6103         120.117         -53.4814          120.79       -0.0111276         147.203
0.559                  -0.835948        -152.411         -53.4522         118.196         -53.3282         118.848       -0.0112951         147.132
0.56                   -0.861128        -153.017         -53.2946         116.267         -53.1754         116.897       -0.0114714         147.062
0.561                  -0.887128        -153.625         -53.1374         114.329         -53.0232         114.938       -0.0116556         146.991
0.562                  -0.913965        -154.235         -52.9809         112.383         -52.8715         112.969       -0.0118464          146.92
0.563                  -0.941655        -154.847         -52.8249         110.429         -52.7204         110.992       -0.0120425         146.848
0.564                  -0.970213        -155.462         -52.6697         108.466           -52.57         109.006       -0.0122423         146.777
0.565                  -0.999651        -156.077         -52.5152         106.495         -52.4203         107.011       -0.0124442         146.705
0.566                   -1.02998        -156.695         -52.3615         104.514         -52.2714         105.008       -0.0126466         146.634
0.567                   -1.06121        -157.313         -52.2087         102.525         -52.1233         102.995       -0.0128482         146.562
0.568                   -1.09335        -157.933         -52.0568         100.527         -51.9761         100.974        -0.013048         146.489
0.569                    -1.1264        -158.553         -51.9059         98.5201         -51.8299         98.9438       -0.0132451         146.417
0.57                    -1.16037        -159.174         -51.7561         96.5044         -51.6847         96.9052       -0.0134391         146.344
0.571                   -1.19525        -159.795         -51.6074           94.48         -51.5406         94.8581       -0.0136298         146.272
0.572                   -1.23105        -160.416         -51.4599         92.4468         -51.3976         92.8026       -0.0138171         146.199
0.573                   -1.26774        -161.037         -51.3136          90.405         -51.2558          90.739       -0.0140012         146.126
0.574                   -1.30533        -161.657         -51.1686         88.3548         -51.1152         88.6674       -0.0141826         146.053
0.575                    -1.3438        -162.277          -51.025         86.2963         -50.9758          86.588       -0.0143615         145.979
0.576                   -1.38312        -162.896         -50.8827         84.2296         -50.8378         84.5011       -0.0145385         145.906
0.577                   -1.42329        -163.513         -50.7419          82.155         -50.7012         82.4069        -0.014714         145.832
0.578                   -1.46426        -164.129         -50.6027         80.0728         -50.5659         80.3057       -0.0148884         145.759
0.579                   -1.50602        -164.743         -50.4649         77.9832         -50.4322         78.1978       -0.0150622         145.685
0.58                    -1.54852        -165.355         -50.3288         75.8864         -50.2999         76.0836       -0.0152358         145.611
0.581                   -1.59174        -165.965         -50.1943         73.7828         -50.1691         73.9633       -0.0154096         145.537
0.582                   -1.63562        -166.573         -50.0615         71.6727         -50.0399         71.8374       -0.0155839         145.463
0.583                   -1.68013        -167.178         -49.9304         69.5566         -49.9124         69.7062        -0.015759         145.388
0.584                    -1.7252         -167.78          -49.801         67.4346         -49.7864         67.5701       -0.0159352         145.314
0.585                    -1.7708         -168.38         -49.6734         65.3074         -49.6621         65.4296       -0.0161126         145.239
0.586                   -1.81686        -168.977         -49.5476         63.1752         -49.5394          63.285       -0.0162915         145.164
0.587                   -1.86333        -169.571         -49.4236         61.0385         -49.4185         61.1368       -0.0164721         145.089
0.588                   -1.91014        -170.162         -49.3015         58.8978         -49.2992         58.9855       -0.0166545         145.014
0.589                   -1.95724         -170.75         -49.1812         56.7534         -49.1816         56.8315       -0.0168389         144.938
0.59                    -2.00456        -171.336         -49.0627          54.606         -49.0658         54.6752       -0.0170253         144.863
0.591                   -2.05204        -171.918         -48.9462          52.456         -48.9516         52.5172       -0.0172139         144.787
0.592                   -2.09963        -172.499         -48.8314         50.3038         -48.8392         50.3578       -0.0174047         144.712
0.593                   -2.14725        -173.077         -48.7186           48.15         -48.7285         48.1976       -0.0175978         144.636
0.594                   -2.19485        -173.653         -48.6076          45.995         -48.6194         46.0371       -0.0177934         144.559
0.595                   -2.24238        -174.227         -48.4984         43.8394         -48.5121         43.8767       -0.0179913         144.483
0.596                   -2.28978          -174.8          -48.391         41.6836         -48.4064         41.7168       -0.0181918         144.407
0.597                     -2.337        -175.372         -48.2855         39.5282         -48.3023         39.5579       -0.0183948          144.33
0.598                   -2.38401        -175.944         -48.1817         37.3735         -48.1999         37.4005       -0.0186004         144.253
0.599                   -2.43076        -176.515         -48.0796         35.2202          -48.099          35.245       -0.0188086         144.176
0.6                     -2.47722        -177.087         -47.9792         33.0687         -47.9997         33.0919       -0.0190195         144.099
0.601                   -2.52337        -177.659         -47.8805         30.9193         -47.9019         30.9414       -0.0192331         144.021
0.602                   -2.56918        -178.233         -47.7835         28.7726         -47.8055         28.7941       -0.0194493         143.944
0.603                   -2.61466         -178.81          -47.688          26.629         -47.7106         26.6502       -0.0196683         143.866
0.604                   -2.65978        -179.388          -47.594         24.4888         -47.6171         24.5103       -0.0198901         143.788
0.605                   -2.70456         -179.97         -47.5015         22.3526         -47.5249         22.3745       -0.0201146          143.71
0.606                   -2.74902         179.444         -47.4104         20.2205          -47.434         20.2432        -0.020342         143.632
0.607                   -2.79316         178.854         -47.3207         18.0931         -47.3443         18.1168       -0.0205721         143.553
0.608                   -2.83702          178.26         -47.2324         15.9706         -47.2559         15.9954       -0.0208052         143.474
0.609                   -2.88063         177.659         -47.1452         13.8532         -47.1685         13.8794       -0.0210411         143.395
0.61                    -2.92403         177.053         -47.0593         11.7414         -47.0823          11.769       -0.0212799         143.316
0.611                   -2.96728          176.44         -46.9745         9.63532          -46.997         9.66442       -0.0215217         143.237
0.612                   -3.01042          175.82         -46.8907          7.5352         -46.9127          7.5658       -0.0217664         143.157
0.613                   -3.05353         175.192         -46.8079         5.44126         -46.8293         5.47334        -0.022014         143.077
0.614                   -3.09667         174.556         -46.7261         3.35368         -46.7468         3.38718       -0.0222647         142.997
0.615                   -3.13992         173.911         -46.6452         1.27261         -46.6651         1.30744       -0.0225184         142.917
0.616                   -3.18335         173.258          -46.565       -0.801828         -46.5841       -0.765779       -0.0227752         142.837
0.617                   -3.22705         172.595         -46.4856        -2.86952         -46.5037         -2.8324       -0.0230351         142.756
0.618                    -3.2711         171.922         -46.4068        -4.93038          -46.424        -4.89237       -0.0232981         142.675
0.619                   -3.31561         171.239         -46.3287        -6.98436         -46.3448        -6.94565       -0.0235643         142.594
0.62                    -3.36065         170.546         -46.2511        -9.03142         -46.2662        -8.99223       -0.0238336         142.512
0.621                   -3.40634         169.843          -46.174        -11.0716          -46.188        -11.0321       -0.0241062         142.431
0.622                   -3.45277         169.128         -46.0973        -13.1048         -46.1102        -13.0653       -0.0243821         142.349
0.623                   -3.50005         168.403          -46.021        -15.1311         -46.0328        -15.0919       -0.0246613         142.267
0.624                   -3.54828         167.667          -45.945        -17.1506         -45.9556        -17.1119       -0.0249439         142.184
0.625                   -3.59757         166.919         -45.8693        -19.1633         -45.8787        -19.1255       -0.0252298         142.102
0.626                   -3.64802          166.16         -45.7937        -21.1694          -45.802        -21.1326       -0.0255193         142.019
0.627                   -3.69975          165.39         -45.7184        -23.1689         -45.7255        -23.1335       -0.0258122         141.936
0.628                   -3.75287         164.608         -45.6431         -25.162         -45.6491        -25.1282       -0.0261088         141.852
0.629                   -3.80749         163.815         -45.5678        -27.1487         -45.5728        -27.1169       -0.0264089         141.769
0.63                    -3.86373         163.011         -45.4926        -29.1294         -45.4965        -29.0997       -0.0267128         141.685
0.631                    -3.9217         162.196         -45.4174         -31.104         -45.4202        -31.0768       -0.0270204           141.6
0.632                    -3.9815         161.369         -45.3421        -33.0729         -45.3439        -33.0484       -0.0273319         141.516
0.633                   -4.04327         160.532         -45.2667        -35.0361         -45.2675        -35.0146       -0.0276473         141.431
0.634                   -4.10712         159.684         -45.1911         -36.994         -45.1911        -36.9756       -0.0279666         141.346
0.635                   -4.17316         158.825         -45.1154        -38.9466         -45.1145        -38.9317       -0.0282901         141.261
0.636                   -4.24151         157.956         -45.0395        -40.8944         -45.0378         -40.883       -0.0286177         141.175
0.637                   -4.31229         157.078         -44.9634        -42.8373          -44.961        -42.8297       -0.0289495         141.089
0.638                   -4.38562         156.189         -44.8871        -44.7758         -44.8839        -44.7721       -0.0292856         141.003
0.639                   -4.46163         155.291         -44.8105          -46.71         -44.8067        -46.7103       -0.0296262         140.916
0.64                    -4.54043         154.384         -44.7336        -48.6402         -44.7293        -48.6447       -0.0299714         140.829
0.641                   -4.62215         153.469         -44.6564        -50.5667         -44.6516        -50.5753       -0.0303211         140.742
0.642                   -4.70691         152.546          -44.579        -52.4896         -44.5738        -52.5026       -0.0306757         140.654
0.643                   -4.79484         151.615         -44.5012        -54.4093         -44.4957        -54.4265       -0.0310351         140.567
0.644                   -4.88606         150.676         -44.4232        -56.3259         -44.4173        -56.3475       -0.0313995         140.478
0.645                   -4.98069         149.732         -44.3448        -58.2398         -44.3388        -58.2656        -0.031769          140.39
0.646                   -5.07887         148.781         -44.2662        -60.1511           -44.26        -60.1812       -0.0321438         140.301
0.647                   -5.18073         147.825         -44.1872        -62.0601          -44.181        -62.0943       -0.0325239         140.212
0.648                   -5.28639         146.864          -44.108        -63.9671         -44.1017        -64.0054       -0.0329096         140.122
0.649                   -5.39598           145.9         -44.0285        -65.8723         -44.0223        -65.9144        -0.033301         140.032
0.65                    -5.50963         144.933         -43.9487        -67.7758         -43.9426        -67.8217       -0.0336981         139.942
0.651                   -5.62748         143.963         -43.8687        -69.6779         -43.8627        -69.7274       -0.0341013         139.851
0.652                   -5.74966         142.993         -43.7884        -71.5789         -43.7827        -71.6316       -0.0345106          139.76
0.653                    -5.8763         142.022         -43.7079        -73.4788         -43.7025        -73.5346       -0.0349263         139.669
0.654                   -6.00752         141.052         -43.6273        -75.3779         -43.6222        -75.4366       -0.0353484         139.577
0.655                   -6.14346         140.084         -43.5464        -77.2762         -43.5418        -77.3375       -0.0357772         139.485
0.656                   -6.28425         139.119         -43.4655        -79.1741         -43.4613        -79.2376       -0.0362128         139.392
0.657                   -6.43001         138.159         -43.3844        -81.0715         -43.3807         -81.137       -0.0366555         139.299
0.658                   -6.58087         137.205         -43.3033        -82.9687            -43.3        -83.0357       -0.0371055         139.206
0.659                   -6.73696         136.258         -43.2221        -84.8656         -43.2193        -84.9339       -0.0375628         139.112
0.66                    -6.89838         135.321         -43.1409        -86.7624         -43.1387        -86.8315       -0.0380279         139.018
0.661                   -7.06527         134.394         -43.0598        -88.6591         -43.0581        -88.7288       -0.0385008         138.924
0.662                   -7.23771         133.479         -42.9787        -90.5557         -42.9775        -90.6256       -0.0389818         138.828
0.663                   -7.41583          132.58         -42.8977        -92.4523         -42.8971        -92.5219       -0.0394711         138.733
0.664                    -7.5997         131.696         -42.8168        -94.3488         -42.8167        -94.4179       -0.0399689         138.637
0.665                   -7.78943         130.832         -42.7361        -96.2452         -42.7366        -96.3133       -0.0404755         138.541
0.666                   -7.98507         129.988         -42.6556        -98.1414         -42.6566        -98.2083       -0.0409912         138.444
0.667                    -8.1867         129.169         -42.5753        -100.037         -42.5768        -100.103       -0.0415161         138.347
0.668                   -8.39435         128.375         -42.4953        -101.933         -42.4973        -101.996       -0.0420505         138.249
0.669                   -8.60806          127.61         -42.4156        -103.828          -42.418        -103.889       -0.0425948          138.15
0.67                    -8.82782         126.878         -42.3362        -105.722          -42.339        -105.781       -0.0431491         138.052
0.671                   -9.05363         126.181         -42.2572        -107.616         -42.2604        -107.672       -0.0437137         137.952
0.672                   -9.28543         125.522         -42.1786        -109.508         -42.1821        -109.561        -0.044289         137.853
0.673                   -9.52314         124.905         -42.1004        -111.399         -42.1041        -111.449       -0.0448751         137.752
0.674                   -9.76664         124.334         -42.0226        -113.289         -42.0265        -113.335       -0.0454725         137.652
0.675                   -10.0158         123.813         -41.9452        -115.177         -41.9493         -115.22       -0.0460814          137.55
0.676                   -10.2703         123.346         -41.8683        -117.062         -41.8725        -117.102       -0.0467021         137.449
0.677                     -10.53         122.936         -41.7918        -118.946         -41.7961        -118.982       -0.0473349         137.346
0.678                   -10.7945          122.59         -41.7159        -120.826         -41.7202        -120.859       -0.0479802         137.243
0.679                   -11.0633          122.31         -41.6404        -122.704         -41.6446        -122.733       -0.0486383          137.14
0.68                    -11.3361         122.101         -41.5653        -124.578         -41.5694        -124.603       -0.0493094         137.036
0.681                   -11.6122         121.969         -41.4907        -126.449         -41.4946        -126.471       -0.0499941         136.931
0.682                   -11.8908         121.918         -41.4166        -128.315         -41.4203        -128.334       -0.0506926         136.826
0.683                   -12.1713         121.953         -41.3428        -130.178         -41.3463        -130.193       -0.0514052          136.72
0.684                   -12.4526         122.077         -41.2695        -132.035         -41.2726        -132.047       -0.0521324         136.614
0.685                   -12.7337         122.295         -41.1965        -133.888         -41.1993        -133.897       -0.0528746         136.507
0.686                   -13.0135          122.61         -41.1239        -135.735         -41.1263        -135.742        -0.053632         136.399
0.687                   -13.2905         123.024         -41.0515        -137.576         -41.0535        -137.581       -0.0544052         136.291
0.688                   -13.5633         123.541         -40.9794        -139.412          -40.981        -139.415       -0.0551945         136.182
0.689                   -13.8303          124.16         -40.9076        -141.242         -40.9086        -141.243       -0.0560003         136.072
0.69                    -14.0899         124.882         -40.8358        -143.065         -40.8364        -143.065       -0.0568231         135.962
0.691                   -14.3402         125.703         -40.7642        -144.881         -40.7643         -144.88       -0.0576633         135.851
0.692                   -14.5795         126.621         -40.6926        -146.691         -40.6922        -146.689       -0.0585214         135.739
0.693                   -14.8059         127.629          -40.621        -148.493         -40.6201        -148.491       -0.0593978         135.627
0.694                   -15.0177         128.721         -40.5492        -150.288         -40.5479        -150.286       -0.0602929         135.514
0.695                   -15.2133         129.886         -40.4774        -152.076         -40.4756        -152.074       -0.0612073           135.4
0.696                   -15.3912         131.113         -40.4053        -153.857         -40.4031        -153.855       -0.0621415         135.285
0.697                   -15.5504          132.39         -40.3329         -155.63         -40.3303        -155.628       -0.0630959          135.17