! TOUCHSTONE file generated by CST MICROWAVE STUDIO
! Date and time: Sat Oct 24 11:16:16 2020
! Project name: Scenario_1_Circular_Tissue_in_Line.cst
! Parameters = {L_HA=400; MT=2.54; Rad_Dielectric=30; Rad_Lower=7.3; Rad_Upper=30; a_HA=580; a_WG=246; b_HA=500; b_WG=121; c_HA=0; c_WG=187; d_feed=85; dx1=657.96; h_feed=15; h_lower=18; h_upper=40}
! Header version: 2018
! Port assignment regex: !\s*Touchstone port\s*([0-9]+)\s*=\s*(CST MWS port|CST DS port)\s*([0-9]+|Zmin|Zmax)\s*\(\"(.*)\"\)(\s*mode\s*([0-9]+))?.*
! Touchstone port assignment:
! Touchstone port 1 = CST MWS port 1 ("")
! Touchstone port 2 = CST MWS port 2 ("")
# GHz S DB R 50
0.5                    -0.164692        -122.326           -61.48        -145.221         -61.4796        -145.221      -0.00772552         151.126
0.501                  -0.172656        -122.772         -61.3806        -146.858         -61.3813        -146.866      -0.00779169         151.061
0.502                  -0.180748         -123.22         -61.2795          -148.5         -61.2813        -148.517      -0.00785801         150.995
0.503                  -0.188967        -123.668         -61.1768        -150.148         -61.1796        -150.172      -0.00792451          150.93
0.504                  -0.197316        -124.118         -61.0724          -151.8         -61.0762        -151.832       -0.0079912         150.865
0.505                  -0.205792         -124.57         -60.9664        -153.458         -60.9711        -153.497      -0.00805808         150.799
0.506                  -0.214397        -125.023         -60.8588        -155.121         -60.8643        -155.166      -0.00812519         150.734
0.507                  -0.223131        -125.477         -60.7495        -156.788         -60.7559         -156.84      -0.00819253         150.668
0.508                  -0.231994        -125.933         -60.6387        -158.461         -60.6457        -158.519      -0.00826011         150.602
0.509                  -0.240986         -126.39         -60.5262        -160.139         -60.5339        -160.202      -0.00832797         150.537
0.51                   -0.250108        -126.849          -60.412        -161.822         -60.4204         -161.89       -0.0083961         150.471
0.511                   -0.25936         -127.31         -60.2963         -163.51         -60.3053        -163.583      -0.00846454         150.405
0.512                  -0.268742        -127.772          -60.179        -165.204         -60.1886        -165.281      -0.00853329         150.339
0.513                  -0.278256        -128.235         -60.0601        -166.902         -60.0702        -166.983      -0.00860238         150.273
0.514                  -0.287902        -128.701         -59.9396        -168.606         -59.9502         -168.69      -0.00867182         150.206
0.515                   -0.29768        -129.168         -59.8176        -170.314         -59.8286        -170.402      -0.00874164          150.14
0.516                  -0.307592        -129.636          -59.694        -172.029         -59.7054        -172.119      -0.00881185         150.074
0.517                  -0.317639        -130.107         -59.5689        -173.748         -59.5806        -173.841      -0.00888247         150.007
0.518                  -0.327822        -130.579         -59.4422        -175.473         -59.4543        -175.568      -0.00895353         149.941
0.519                  -0.338141        -131.053         -59.3141        -177.203         -59.3264          -177.3      -0.00902504         149.874
0.52                   -0.348598        -131.529         -59.1845        -178.939         -59.1971        -179.037      -0.00909703         149.807
0.521                  -0.359196        -132.007         -59.0535         179.319         -59.0662          179.22      -0.00916952         149.741
0.522                  -0.369935        -132.487          -58.921         177.572         -58.9339         177.472      -0.00924254         149.674
0.523                  -0.380817        -132.969          -58.787         175.819         -58.8001         175.718       -0.0093161         149.607
0.524                  -0.391845        -133.452         -58.6518          174.06         -58.6649         173.959      -0.00939022          149.54
0.525                   -0.40302        -133.938         -58.5151         172.295         -58.5284         172.194      -0.00946495         149.472
0.526                  -0.414345        -134.427         -58.3771         170.524         -58.3904         170.423      -0.00954029         149.405
0.527                  -0.425824        -134.917         -58.2378         168.746         -58.2512         168.646      -0.00961628         149.338
0.528                  -0.437458        -135.409         -58.0973         166.963         -58.1106         166.863      -0.00969294          149.27
0.529                  -0.449251        -135.904         -57.9555         165.172         -57.9688         165.073       -0.0097703         149.203
0.53                   -0.461207        -136.401         -57.8125         163.375         -57.8257         163.278      -0.00984838         149.135
0.531                  -0.473329        -136.901         -57.6683         161.572         -57.6815         161.475      -0.00992722         149.067
0.532                  -0.485622        -137.403          -57.523         159.761         -57.5361         159.666       -0.0100068             149
0.533                  -0.498091        -137.908         -57.3766         157.943         -57.3896          157.85       -0.0100873         148.932
0.534                  -0.510741        -138.415         -57.2291         156.118          -57.242         156.027       -0.0101686         148.864
0.535                  -0.523576        -138.925         -57.0806         154.286         -57.0933         154.197       -0.0102507         148.795
0.536                  -0.536605        -139.437         -56.9312         152.446         -56.9437         152.359       -0.0103338         148.727
0.537                  -0.549832        -139.953         -56.7808         150.598         -56.7932         150.514       -0.0104178         148.659
0.538                  -0.563266        -140.471         -56.6296         148.743         -56.6417         148.661       -0.0105027          148.59
0.539                  -0.576915        -140.992         -56.4775          146.88         -56.4894           146.8       -0.0105887         148.522
0.54                   -0.590786        -141.516         -56.3247         145.008         -56.3363          144.93       -0.0106757         148.453
0.541                  -0.604891        -142.044         -56.1711         143.128         -56.1825         143.053       -0.0107638         148.384
0.542                  -0.619239        -142.574         -56.0168         141.239          -56.028         141.167        -0.010853         148.315
0.543                  -0.633842        -143.108          -55.862         139.342         -55.8729         139.273       -0.0109433         148.246
0.544                  -0.648712        -143.645         -55.7066         137.436         -55.7171          137.37       -0.0110348         148.177
0.545                  -0.663863        -144.186         -55.5507         135.521         -55.5609         135.458       -0.0111276         148.108
0.546                   -0.67931         -144.73         -55.3943         133.597         -55.4043         133.537       -0.0112215         148.039
0.547                  -0.695069        -145.278         -55.2376         131.663         -55.2472         131.606       -0.0113168         147.969
0.548                  -0.711159        -145.829         -55.0806         129.721         -55.0899         129.666       -0.0114134           147.9
0.549                  -0.727598        -146.384         -54.9233         127.769         -54.9323         127.717       -0.0115114          147.83
0.55                   -0.744408        -146.943         -54.7659         125.807         -54.7745         125.758       -0.0116108          147.76
0.551                  -0.761612        -147.507         -54.6084         123.835         -54.6166          123.79       -0.0117117          147.69
0.552                  -0.779235        -148.074         -54.4509         121.854         -54.4587         121.812        -0.011814          147.62
0.553                  -0.797306        -148.645         -54.2934         119.863         -54.3008         119.823       -0.0119179          147.55
0.554                  -0.815854        -149.221          -54.136         117.862         -54.1431         117.825       -0.0120234          147.48
0.555                  -0.834911          -149.8         -53.9789         115.851         -53.9855         115.817       -0.0121305         147.409
0.556                  -0.854514        -150.385          -53.822          113.83         -53.8282         113.799       -0.0122392         147.339
0.557                    -0.8747        -150.973         -53.6655         111.799         -53.6713         111.771       -0.0123496         147.268
0.558                  -0.895511        -151.566         -53.5094         109.758         -53.5149         109.732       -0.0124618         147.197
0.559                  -0.916992        -152.164         -53.3538         107.708         -53.3589         107.684       -0.0125758         147.127
0.56                   -0.939191        -152.766         -53.1988         105.647         -53.2035         105.626       -0.0126916         147.056
0.561                  -0.962159        -153.372         -53.0446         103.577         -53.0489         103.558       -0.0128093         146.984
0.562                  -0.985952        -153.983         -52.8911         101.497          -52.895          101.48       -0.0129289         146.913
0.563                   -1.01063        -154.598         -52.7384         99.4072         -52.7419          99.393       -0.0130504         146.842
0.564                   -1.03625        -155.217         -52.5867         97.3085         -52.5898         97.2962       -0.0131739          146.77
0.565                   -1.06287        -155.841         -52.4359         95.2005         -52.4387         95.1901       -0.0132995         146.699
0.566                   -1.09057        -156.468         -52.2863         93.0836         -52.2887          93.075       -0.0134272         146.627
0.567                   -1.11941        -157.098         -52.1378          90.958         -52.1398         90.9511       -0.0135569         146.555
0.568                   -1.14946        -157.732         -51.9906          88.824         -51.9922         88.8187       -0.0136888         146.483
0.569                   -1.18079        -158.369         -51.8447         86.6819          -51.846          86.678       -0.0138229          146.41
0.57                    -1.21345        -159.008         -51.7002          84.532         -51.7011         84.5294       -0.0139593         146.338
0.571                   -1.24752        -159.648         -51.5572         82.3747         -51.5577         82.3733       -0.0140979         146.266
0.572                   -1.28305        -160.289         -51.4156         80.2103         -51.4159           80.21       -0.0142388         146.193
0.573                   -1.32007        -160.931         -51.2757         78.0393         -51.2756         78.0399        -0.014382          146.12
0.574                   -1.35862        -161.572         -51.1374         75.8621         -51.1371         75.8636       -0.0145276         146.047
0.575                   -1.39872        -162.211         -51.0009         73.6792         -51.0002         73.6813       -0.0146756         145.974
0.576                   -1.44035        -162.848         -50.8661         71.4909         -50.8651         71.4937        -0.014826         145.901
0.577                    -1.4835        -163.481         -50.7331         69.2979         -50.7319         69.3012       -0.0149789         145.828
0.578                   -1.52811        -164.108         -50.6019         67.1007         -50.6005         67.1044       -0.0151342         145.754
0.579                   -1.57409         -164.73         -50.4727         64.8997          -50.471         64.9038       -0.0152921          145.68
0.58                    -1.62132        -165.345         -50.3453         62.6956         -50.3434         62.6999       -0.0154525         145.607
0.581                   -1.66965        -165.952         -50.2199         60.4889         -50.2178         60.4933       -0.0156154         145.533
0.582                    -1.7189        -166.549         -50.0965         58.2801         -50.0942         58.2847       -0.0157808         145.459
0.583                   -1.76886        -167.137          -49.975         56.0699         -49.9726         56.0745       -0.0159489         145.384
0.584                   -1.81929        -167.714         -49.8555         53.8588          -49.853         53.8633       -0.0161195          145.31
0.585                   -1.86992        -168.281         -49.7381         51.6475         -49.7354         51.6518       -0.0162928         145.235
0.586                   -1.92049        -168.838         -49.6226         49.4364         -49.6198         49.4406       -0.0164686         145.161
0.587                   -1.97071        -169.384         -49.5091         47.2261         -49.5062         47.2301       -0.0166471         145.086
0.588                   -2.02033        -169.921         -49.3975         45.0173         -49.3946          45.021       -0.0168282         145.011
0.589                   -2.06909        -170.449         -49.2879         42.8105         -49.2849         42.8139       -0.0170119         144.935
0.59                    -2.11677        -170.971         -49.1802         40.6061         -49.1772         40.6092       -0.0171983          144.86
0.591                   -2.16318        -171.486         -49.0744         38.4048         -49.0714         38.4076       -0.0173873         144.784
0.592                   -2.20819        -171.998         -48.9705         36.2071         -48.9674         36.2095        -0.017579         144.709
0.593                   -2.25169        -172.508         -48.8684         34.0134         -48.8653         34.0155       -0.0177733         144.633
0.594                   -2.29364        -173.018          -48.768         31.8242         -48.7649         31.8259       -0.0179702         144.557
0.595                   -2.33403        -173.529         -48.6694           29.64         -48.6663         29.6413       -0.0181697          144.48
0.596                   -2.37291        -174.044         -48.5724         27.4611         -48.5694         27.4621       -0.0183719         144.404
0.597                   -2.41036        -174.564          -48.477         25.2879         -48.4741         25.2886       -0.0185767         144.327
0.598                   -2.44648        -175.091         -48.3832         23.1209         -48.3803         23.1212       -0.0187841         144.251
0.599                   -2.48143        -175.626         -48.2909         20.9603          -48.288         20.9603       -0.0189941         144.174
0.6                     -2.51535        -176.171         -48.1999         18.8065         -48.1972         18.8061       -0.0192067         144.096
0.601                   -2.54843        -176.725         -48.1104         16.6596         -48.1077          16.659       -0.0194219         144.019
0.602                   -2.58083        -177.291         -48.0221           14.52         -48.0195         14.5192       -0.0196397         143.941
0.603                   -2.61273        -177.868          -47.935         12.3879         -47.9325         12.3868       -0.0198601         143.864
0.604                   -2.64433        -178.458         -47.8491         10.2634         -47.8467         10.2621       -0.0200831         143.786
0.605                   -2.67579         -179.06         -47.7642         8.14663          -47.762         8.14513       -0.0203086         143.708
0.606                   -2.70729        -179.674         -47.6804         6.03778         -47.6782         6.03613       -0.0205367         143.629
0.607                   -2.73897         179.698         -47.5974          3.9369         -47.5954         3.93513       -0.0207674         143.551
0.608                   -2.77099         179.058         -47.5154         1.84405         -47.5134         1.84218       -0.0210007         143.472
0.609                    -2.8035         178.406         -47.4341       -0.240743         -47.4322        -0.24269       -0.0212366         143.393
0.61                    -2.83662         177.741         -47.3535        -2.31749         -47.3518        -2.31948       -0.0214751         143.314
0.611                   -2.87047         177.064         -47.2735        -4.38622          -47.272        -4.38823       -0.0217162         143.235
0.612                   -2.90517         176.374         -47.1942        -6.44698         -47.1927        -6.44899       -0.0219599         143.155
0.613                   -2.94081         175.673         -47.1153        -8.49986          -47.114        -8.50184       -0.0222063         143.075
0.614                   -2.97751          174.96         -47.0369         -10.545         -47.0357        -10.5469       -0.0224553         142.995
0.615                   -3.01535         174.236         -46.9589        -12.5824         -46.9578        -12.5843        -0.022707         142.915
0.616                   -3.05442           173.5         -46.8812        -14.6123         -46.8802        -14.6141       -0.0229615         142.835
0.617                    -3.0948         172.754         -46.8038        -16.6349         -46.8029        -16.6366       -0.0232186         142.754
0.618                   -3.13657         171.997         -46.7266        -18.6504         -46.7258        -18.6519       -0.0234786         142.673
0.619                    -3.1798         171.229         -46.6495        -20.6588         -46.6488        -20.6603       -0.0237414         142.592
0.62                    -3.22457         170.451         -46.5726        -22.6606          -46.572        -22.6618       -0.0240071         142.511
0.621                   -3.27095         169.663         -46.4957        -24.6558         -46.4952        -24.6569       -0.0242757         142.429
0.622                   -3.31901         168.865         -46.4189        -26.6447         -46.4185        -26.6457       -0.0245473         142.347
0.623                   -3.36882         168.058          -46.342        -28.6276         -46.3417        -28.6284       -0.0248219         142.265
0.624                   -3.42046         167.241         -46.2651        -30.6047         -46.2649        -30.6054       -0.0250997         142.183
0.625                   -3.47399         166.415         -46.1881        -32.5764         -46.1879        -32.5768       -0.0253806           142.1
0.626                   -3.52948         165.581          -46.111        -34.5428         -46.1109        -34.5431       -0.0256647         142.017
0.627                   -3.58701         164.737         -46.0338        -36.5043         -46.0337        -36.5044       -0.0259521         141.934
0.628                   -3.64665         163.885         -45.9563        -38.4611         -45.9563         -38.461        -0.026243         141.851
0.629                   -3.70848         163.025         -45.8787        -40.4135         -45.8788        -40.4133       -0.0265373         141.767
0.63                    -3.77258         162.156         -45.8009        -42.3619          -45.801        -42.3614       -0.0268352         141.683
0.631                   -3.83902          161.28         -45.7228        -44.3064          -45.723        -44.3058       -0.0271368         141.599
0.632                   -3.90789         160.396         -45.6446        -46.2475         -45.6448        -46.2467       -0.0274421         141.514
0.633                   -3.97927         159.505          -45.566        -48.1852         -45.5663        -48.1843       -0.0277513         141.429
0.634                   -4.05325         158.608         -45.4873        -50.1201         -45.4876         -50.119       -0.0280645         141.344
0.635                   -4.12991         157.703         -45.4082        -52.0522         -45.4086         -52.051       -0.0283817         141.259
0.636                   -4.20935         156.792         -45.3289         -53.982         -45.3293        -53.9807       -0.0287032         141.173
0.637                   -4.29166         155.876         -45.2494        -55.9096         -45.2498        -55.9081       -0.0290289         141.087
0.638                   -4.37693         154.953         -45.1696        -57.8352         -45.1701        -57.8337       -0.0293591         141.001
0.639                   -4.46527         154.026         -45.0896        -59.7592         -45.0901        -59.7576       -0.0296939         140.914
0.64                    -4.55676         153.095         -45.0094        -61.6818         -45.0099        -61.6801       -0.0300333         140.827
0.641                   -4.65153         152.159          -44.929        -63.6032         -44.9294        -63.6014       -0.0303776          140.74
0.642                   -4.74966         151.219         -44.8483        -65.5235         -44.8488        -65.5217       -0.0307268         140.653
0.643                   -4.85127         150.277         -44.7675        -67.4431          -44.768        -67.4411       -0.0310812         140.565
0.644                   -4.95645         149.333         -44.6865         -69.362          -44.687          -69.36       -0.0314408         140.477
0.645                   -5.06533         148.386         -44.6054        -71.2804         -44.6059        -71.2784       -0.0318058         140.388
0.646                   -5.17799          147.44         -44.5242        -73.1984         -44.5247        -73.1964       -0.0321763         140.299
0.647                   -5.29457         146.493         -44.4429        -75.1163         -44.4434        -75.1143       -0.0325526          140.21
0.648                   -5.41516         145.547         -44.3615        -77.0341          -44.362        -77.0321       -0.0329347          140.12
0.649                   -5.53986         144.603         -44.2801        -78.9519         -44.2806        -78.9499       -0.0333228          140.03
0.65                     -5.6688         143.662         -44.1986        -80.8697         -44.1991        -80.8677       -0.0337171          139.94
0.651                   -5.80206         142.725         -44.1172        -82.7877         -44.1177        -82.7857       -0.0341178         139.849
0.652                   -5.93976         141.793         -44.0358        -84.7059         -44.0364        -84.7039        -0.034525         139.758
0.653                     -6.082         140.868         -43.9546        -86.6242         -43.9551        -86.6222       -0.0349389         139.667
0.654                   -6.22885          139.95         -43.8734        -88.5427         -43.8739        -88.5408       -0.0353597         139.575
0.655                   -6.38042         139.042         -43.7923        -90.4613         -43.7928        -90.4594       -0.0357876         139.483
0.656                   -6.53679         138.144         -43.7115          -92.38         -43.7119        -92.3782       -0.0362227          139.39
0.657                   -6.69803         137.259         -43.6308        -94.2988         -43.6313         -94.297       -0.0366653         139.297
0.658                   -6.86421         136.388         -43.5503        -96.2175         -43.5508        -96.2158       -0.0371155         139.204
0.659                   -7.03537         135.533         -43.4701         -98.136         -43.4706        -98.1343       -0.0375735          139.11
0.66                    -7.21157         134.696         -43.3902        -100.054         -43.3906        -100.053       -0.0380396         139.016
0.661                   -7.39284          133.88         -43.3106        -101.972          -43.311         -101.97        -0.038514         138.921
0.662                   -7.57918         133.085         -43.2312        -103.889         -43.2316        -103.888       -0.0389968         138.826
0.663                   -7.77059         132.315         -43.1523        -105.806         -43.1527        -105.804       -0.0394882         138.731
0.664                   -7.96704         131.571         -43.0736        -107.721          -43.074         -107.72       -0.0399886         138.635
0.665                   -8.16849         130.857         -42.9954        -109.635         -42.9958        -109.634        -0.040498         138.538
0.666                   -8.37487         130.175         -42.9175        -111.548         -42.9179        -111.547       -0.0410169         138.441
0.667                   -8.58606         129.528           -42.84        -113.459         -42.8404        -113.458       -0.0415453         138.344
0.668                   -8.80193         128.918          -42.763        -115.369         -42.7633        -115.367       -0.0420835         138.246
0.669                   -9.02231         128.348         -42.6863        -117.276         -42.6866        -117.275       -0.0426317         138.148
0.67                    -9.24699         127.822           -42.61         -119.18         -42.6103        -119.179       -0.0431903         138.049
0.671                   -9.47572         127.342         -42.5342        -121.082         -42.5345        -121.082       -0.0437594          137.95
0.672                    -9.7082         126.912         -42.4587        -122.982          -42.459        -122.981       -0.0443394          137.85
0.673                   -9.94406         126.534         -42.3836        -124.877         -42.3839        -124.877       -0.0449304          137.75
0.674                   -10.1829         126.211         -42.3089         -126.77         -42.3091        -126.769       -0.0455328         137.649
0.675                   -10.4243         125.947         -42.2346        -128.658         -42.2348        -128.658       -0.0461468         137.548
0.676                   -10.6676         125.745         -42.1605        -130.543         -42.1607        -130.542       -0.0467728         137.446
0.677                   -10.9124         125.606         -42.0868        -132.423          -42.087        -132.422        -0.047411         137.344
0.678                   -11.1578         125.534         -42.0134        -134.299         -42.0135        -134.298       -0.0480616         137.241
0.679                   -11.4033          125.53         -41.9402        -136.169         -41.9403        -136.169       -0.0487251         137.138
0.68                    -11.6479         125.597         -41.8672        -138.035         -41.8674        -138.035       -0.0494017         137.034
0.681                   -11.8909         125.736         -41.7945        -139.895         -41.7946        -139.895       -0.0500918         136.929
0.682                   -12.1312         125.948         -41.7218         -141.75         -41.7219         -141.75       -0.0507956         136.824
0.683                   -12.3679         126.232         -41.6493        -143.599         -41.6494        -143.599       -0.0515135         136.718
0.684                      -12.6         126.589         -41.5768        -145.443         -41.5768        -145.442       -0.0522459         136.612
0.685                   -12.8263         127.017         -41.5043         -147.28         -41.5043         -147.28        -0.052993         136.505
0.686                   -13.0459         127.514         -41.4318        -149.111         -41.4318        -149.111       -0.0537554         136.397
0.687                   -13.2576         128.076         -41.3592        -150.936         -41.3592        -150.935       -0.0545332         136.289
0.688                   -13.4605         128.699         -41.2864        -152.754         -41.2864        -152.754        -0.055327          136.18
0.689                   -13.6534         129.379         -41.2134        -154.566         -41.2134        -154.566       -0.0561371          136.07
0.69                    -13.8356         130.109         -41.1402        -156.371         -41.1401        -156.371       -0.0569639          135.96
0.691                   -14.0062         130.882         -41.0666        -158.169         -41.0665        -158.169       -0.0578078         135.849
0.692                   -14.1646         131.691         -40.9927        -159.961         -40.9926        -159.961       -0.0586692         135.738
0.693                   -14.3102         132.526         -40.9183        -161.746         -40.9182        -161.747       -0.0595486         135.625
0.694                   -14.4428          133.38         -40.8434        -163.525         -40.8433        -163.526       -0.0604465         135.512
0.695                   -14.5622         134.242          -40.768        -165.297         -40.7679        -165.298       -0.0613632         135.399
0.696                   -14.6684         135.105          -40.692        -167.063         -40.6918        -167.064       -0.0622992         135.284
0.697                   -14.7617         135.958         -40.6153        -168.823         -40.6151        -168.823       -0.0632551         135.169