! TOUCHSTONE file generated by CST MICROWAVE STUDIO
! Date and time: Sat Oct 24 11:16:23 2020
! Project name: Scenario_1_Circular_Tissue_in_Line.cst
! Parameters = {L_HA=400; MT=2.54; Rad_Dielectric=30; Rad_Lower=7.3; Rad_Upper=30; a_HA=580; a_WG=246; b_HA=500; b_WG=121; c_HA=0; c_WG=187; d_feed=85; dx1=675.28; h_feed=15; h_lower=18; h_upper=40}
! Header version: 2018
! Port assignment regex: !\s*Touchstone port\s*([0-9]+)\s*=\s*(CST MWS port|CST DS port)\s*([0-9]+|Zmin|Zmax)\s*\(\"(.*)\"\)(\s*mode\s*([0-9]+))?.*
! Touchstone port assignment:
! Touchstone port 1 = CST MWS port 1 ("")
! Touchstone port 2 = CST MWS port 2 ("")
# GHz S DB R 50
0.5                    -0.160618        -122.292         -61.7044        -155.915         -61.7049        -155.914      -0.00772954         151.104
0.501                  -0.165241        -122.721         -61.5862        -157.723         -61.5835        -157.727      -0.00779462         151.039
0.502                   -0.16996        -123.152         -61.4667        -159.532         -61.4612         -159.54      -0.00786002         150.973
0.503                  -0.174778        -123.586          -61.346        -161.341         -61.3379        -161.353      -0.00792575         150.908
0.504                    -0.1797        -124.022         -61.2241         -163.15         -61.2138        -163.166      -0.00799182         150.842
0.505                  -0.184732        -124.461          -61.101        -164.959         -61.0889        -164.979      -0.00805822         150.777
0.506                  -0.189879        -124.902         -60.9767        -166.768         -60.9631        -166.792      -0.00812497         150.711
0.507                  -0.195146        -125.346         -60.8514        -168.577         -60.8364        -168.605      -0.00819208         150.646
0.508                  -0.200539        -125.793         -60.7251        -170.386          -60.709        -170.417      -0.00825953          150.58
0.509                  -0.206065        -126.242         -60.5976        -172.194         -60.5808        -172.228      -0.00832736         150.514
0.51                   -0.211729        -126.694         -60.4692        -174.002         -60.4519         -174.04      -0.00839555         150.448
0.511                  -0.217538        -127.149         -60.3399         -175.81         -60.3222         -175.85      -0.00846412         150.382
0.512                  -0.223499        -127.606         -60.2096        -177.618         -60.1918         -177.66      -0.00853308         150.316
0.513                   -0.22962        -128.067         -60.0783        -179.426         -60.0606        -179.469      -0.00860244          150.25
0.514                  -0.235908         -128.53         -59.9462         178.767         -59.9288         178.722       -0.0086722         150.183
0.515                  -0.242371        -128.996         -59.8132          176.96         -59.7962         176.914      -0.00874237         150.117
0.516                  -0.249017        -129.465         -59.6794         175.154         -59.6629         175.107      -0.00881297         150.051
0.517                  -0.255856        -129.937         -59.5447         173.347          -59.529           173.3        -0.008884         149.984
0.518                  -0.262896        -130.412         -59.4093         171.541         -59.3943         171.494      -0.00895548         149.918
0.519                  -0.270146         -130.89          -59.273         169.734         -59.2589         169.688      -0.00902743         149.851
0.52                   -0.277618        -131.372          -59.136         167.928         -59.1229         167.883      -0.00909984         149.784
0.521                  -0.285321        -131.856         -58.9982         166.121         -58.9861         166.078      -0.00917274         149.717
0.522                  -0.293266        -132.343         -58.8596         164.314         -58.8487         164.273      -0.00924615          149.65
0.523                  -0.301464        -132.834         -58.7203         162.507         -58.7105         162.468      -0.00932008         149.583
0.524                  -0.309928        -133.328         -58.5803         160.699         -58.5717         160.664      -0.00939454         149.516
0.525                  -0.318669        -133.825         -58.4395         158.891         -58.4321         158.859      -0.00946956         149.449
0.526                    -0.3277        -134.325          -58.298         157.082         -58.2918         157.053      -0.00954515         149.382
0.527                  -0.337035        -134.829         -58.1558         155.271         -58.1507         155.247      -0.00962133         149.314
0.528                  -0.346687        -135.336         -58.0129          153.46          -58.009         153.441      -0.00969814         149.247
0.529                  -0.356671        -135.846         -57.8692         151.647         -57.8664         151.633      -0.00977558         149.179
0.53                   -0.367001         -136.36         -57.7249         149.833         -57.7232         149.823      -0.00985368         149.111
0.531                  -0.377693        -136.877         -57.5799         148.017         -57.5792         148.013      -0.00993248         149.044
0.532                  -0.388762        -137.397         -57.4341         146.199         -57.4344           146.2        -0.010012         148.976
0.533                  -0.400225        -137.921         -57.2877         144.378         -57.2888         144.385       -0.0100922         148.908
0.534                  -0.412099        -138.448         -57.1406         142.555         -57.1425         142.567       -0.0101733          148.84
0.535                  -0.424401        -138.978         -56.9927         140.728         -56.9955         140.747       -0.0102551         148.772
0.536                  -0.437149        -139.512         -56.8442         138.899         -56.8476         138.923       -0.0103378         148.703
0.537                  -0.450362        -140.049         -56.6951         137.066          -56.699         137.095       -0.0104214         148.635
0.538                  -0.464057        -140.589         -56.5452         135.229         -56.5497         135.264       -0.0105058         148.566
0.539                  -0.478254        -141.133         -56.3947         133.387         -56.3995         133.428       -0.0105913         148.498
0.54                   -0.492972        -141.679         -56.2436         131.541         -56.2487         131.587       -0.0106777         148.429
0.541                  -0.508231        -142.229         -56.0918         129.689         -56.0971          129.74       -0.0107651          148.36
0.542                   -0.52405        -142.783         -55.9394         127.832         -55.9449         127.888       -0.0108536         148.291
0.543                  -0.540449        -143.339         -55.7863         125.969         -55.7919         126.029       -0.0109433         148.222
0.544                  -0.557449        -143.898         -55.6328           124.1         -55.6383         124.163       -0.0110341         148.153
0.545                  -0.575068         -144.46         -55.4786         122.224         -55.4841          122.29       -0.0111262         148.084
0.546                  -0.593326        -145.025          -55.324          120.34         -55.3293          120.41       -0.0112195         148.014
0.547                  -0.612244        -145.593         -55.1688         118.449         -55.1739         118.521       -0.0113141         147.945
0.548                  -0.631838        -146.163         -55.0133         116.549          -55.018         116.623       -0.0114101         147.875
0.549                  -0.652128        -146.736         -54.8573         114.641         -54.8617         114.716       -0.0115076         147.806
0.55                   -0.673131        -147.311         -54.7009         112.724          -54.705         112.799       -0.0116065         147.736
0.551                  -0.694862        -147.888         -54.5443         110.797          -54.548         110.873        -0.011707         147.666
0.552                  -0.717338        -148.467         -54.3874         108.859         -54.3907         108.935       -0.0118091         147.596
0.553                  -0.740571        -149.048         -54.2303         106.912         -54.2332         106.987       -0.0119128         147.526
0.554                  -0.764573        -149.631         -54.0732         104.953         -54.0756         105.026       -0.0120183         147.455
0.555                  -0.789355        -150.215          -53.916         102.983         -53.9179         103.055       -0.0121256         147.385
0.556                  -0.814925        -150.801         -53.7589         101.002         -53.7604          101.07       -0.0122347         147.314
0.557                  -0.841288        -151.387         -53.6019         99.0081          -53.603         99.0738       -0.0123458         147.244
0.558                  -0.868447        -151.975         -53.4452          97.002         -53.4459         97.0643       -0.0124588         147.173
0.559                  -0.896403        -152.563         -53.2887         94.9834         -53.2891         95.0417       -0.0125738         147.102
0.56                   -0.925151        -153.151         -53.1328         92.9518         -53.1328         93.0059       -0.0126909         147.031
0.561                  -0.954686        -153.739         -52.9774         90.9071         -52.9771         90.9567       -0.0128102         146.959
0.562                  -0.984997        -154.327         -52.8226         88.8492         -52.8222         88.8939       -0.0129316         146.888
0.563                   -1.01607        -154.915         -52.6687          86.778          -52.668         86.8177       -0.0130553         146.817
0.564                   -1.04789        -155.502         -52.5156         84.6934         -52.5149         84.7279       -0.0131814         146.745
0.565                   -1.08043        -156.089         -52.3636         82.5954         -52.3628         82.6247       -0.0133097         146.673
0.566                   -1.11367        -156.674         -52.2127         80.4842         -52.2119         80.5082       -0.0134405         146.602
0.567                   -1.14757        -157.258         -52.0631         78.3599         -52.0624         78.3786       -0.0135737          146.53
0.568                   -1.18211         -157.84          -51.915         76.2228         -51.9144         76.2362       -0.0137094         146.457
0.569                   -1.21724         -158.42         -51.7683         74.0731         -51.7679         74.0814       -0.0138475         146.385
0.57                    -1.25292        -158.999         -51.6233         71.9111         -51.6231         71.9147       -0.0139883         146.313
0.571                   -1.28911        -159.576         -51.4801         69.7375         -51.4802         69.7364       -0.0141315          146.24
0.572                   -1.32575         -160.15         -51.3388         67.5526         -51.3392         67.5471       -0.0142774         146.168
0.573                   -1.36279        -160.722         -51.1995          65.357         -51.2003         65.3476       -0.0144258         146.095
0.574                   -1.40018        -161.292         -51.0623         63.1515         -51.0635         63.1384       -0.0145769         146.022
0.575                   -1.43787         -161.86         -50.9274         60.9366          -50.929         60.9203       -0.0147306         145.949
0.576                   -1.47578        -162.425         -50.7947         58.7133         -50.7968         58.6941       -0.0148869         145.875
0.577                   -1.51387        -162.988         -50.6644         56.4823         -50.6669         56.4607       -0.0150458         145.802
0.578                   -1.55207         -163.55         -50.5366         54.2445         -50.5396         54.2209       -0.0152073         145.729
0.579                   -1.59033        -164.109         -50.4112         52.0008         -50.4147         51.9757       -0.0153714         145.655
0.58                    -1.62858        -164.666         -50.2885         49.7523         -50.2924          49.726       -0.0155381         145.581
0.581                   -1.66678        -165.223         -50.1683         47.4998         -50.1727         47.4728       -0.0157073         145.507
0.582                   -1.70487        -165.778         -50.0508         45.2444         -50.0556         45.2171       -0.0158791         145.433
0.583                    -1.7428        -166.332         -49.9359         42.9871         -49.9411         42.9599       -0.0160534         145.359
0.584                   -1.78054        -166.886         -49.8236          40.729         -49.8291         40.7021       -0.0162301         145.284
0.585                   -1.81803        -167.439         -49.7139          38.471         -49.7198         38.4448       -0.0164093          145.21
0.586                   -1.85525        -167.993         -49.6068         36.2141          -49.613          36.189       -0.0165909         145.135
0.587                   -1.89217        -168.548         -49.5023         33.9593         -49.5087         33.9355        -0.016775          145.06
0.588                   -1.92877        -169.105         -49.4002         31.7077         -49.4069         31.6853       -0.0169613         144.985
0.589                   -1.96503        -169.663         -49.3006           29.46         -49.3074         29.4392         -0.01715          144.91
0.59                    -2.00096        -170.224         -49.2034         27.2171         -49.2103         27.1981       -0.0173409         144.834
0.591                   -2.03655        -170.787         -49.1084         24.9799         -49.1154         24.9628       -0.0175342         144.759
0.592                    -2.0718        -171.354         -49.0156         22.7491         -49.0226          22.734       -0.0177296         144.683
0.593                   -2.10675        -171.925         -48.9249         20.5255         -48.9319         20.5123       -0.0179272         144.607
0.594                   -2.14139        -172.501         -48.8362         18.3096         -48.8431         18.2985        -0.018127         144.531
0.595                   -2.17578        -173.082         -48.7494         16.1021         -48.7562         16.0929        -0.018329         144.455
0.596                   -2.20993        -173.668         -48.6643         13.9035          -48.671         13.8961        -0.018533         144.379
0.597                    -2.2439         -174.26         -48.5809         11.7142         -48.5874         11.7086       -0.0187392         144.302
0.598                   -2.27773        -174.859          -48.499         9.53453         -48.5053         9.53066       -0.0189474         144.225
0.599                   -2.31148        -175.464         -48.4185          7.3649         -48.4245          7.3626       -0.0191578         144.148
0.6                      -2.3452        -176.077         -48.3393         5.20551         -48.3451         5.20466       -0.0193702         144.071
0.601                   -2.37896        -176.698         -48.2612         3.05654         -48.2667         3.05701       -0.0195846         143.994
0.602                   -2.41282        -177.327         -48.1842        0.918133         -48.1894        0.919757       -0.0198012         143.916
0.603                   -2.44685        -177.964         -48.1081        -1.20967          -48.113        -1.20703       -0.0200198         143.839
0.604                   -2.48114         -178.61         -48.0329        -3.32685         -48.0375        -3.32335       -0.0202406         143.761
0.605                   -2.51575        -179.266         -47.9583        -5.43347         -47.9626        -5.42926       -0.0204634         143.683
0.606                   -2.55077         -179.93         -47.8842        -7.52961         -47.8882        -7.52483       -0.0206883         143.604
0.607                   -2.58628         179.396         -47.8107        -9.61542         -47.8144        -9.61022       -0.0209154         143.526
0.608                   -2.62236         178.713         -47.7376        -11.6911         -47.7409        -11.6856       -0.0211447         143.447
0.609                    -2.6591         178.019         -47.6647        -13.7568         -47.6678        -13.7512       -0.0213762         143.368
0.61                    -2.69658         177.316          -47.592        -15.8129         -47.5948        -15.8072         -0.02161         143.289
0.611                   -2.73489         176.603         -47.5195        -17.8596          -47.522        -17.8539        -0.021846          143.21
0.612                   -2.77412         175.879          -47.447        -19.8972         -47.4492        -19.8917       -0.0220844          143.13
0.613                   -2.81437         175.145         -47.3744        -21.9261         -47.3764        -21.9209       -0.0223251         143.051
0.614                   -2.85571         174.402         -47.3017        -23.9467         -47.3035        -23.9417       -0.0225683         142.971
0.615                   -2.89824         173.648         -47.2289        -25.9592         -47.2304        -25.9547        -0.022814          142.89
0.616                   -2.94205         172.884         -47.1559        -27.9642         -47.1572          -27.96       -0.0230622          142.81
0.617                   -2.98724          172.11         -47.0825         -29.962         -47.0837        -29.9583       -0.0233131         142.729
0.618                   -3.03389         171.326         -47.0089         -31.953         -47.0098        -31.9497       -0.0235667         142.649
0.619                   -3.08209         170.532         -46.9349        -33.9376         -46.9357        -33.9349        -0.023823         142.567
0.62                    -3.13195         169.728         -46.8605        -35.9163         -46.8611         -35.914       -0.0240822         142.486
0.621                   -3.18354         168.915         -46.7857        -37.8894         -46.7862        -37.8877       -0.0243443         142.404
0.622                   -3.23698         168.092         -46.7104        -39.8574         -46.7108        -39.8562       -0.0246093         142.323
0.623                   -3.29234         167.261         -46.6347        -41.8208          -46.635        -41.8201       -0.0248775          142.24
0.624                   -3.34972          166.42         -46.5585        -43.7798         -46.5588        -43.7796       -0.0251488         142.158
0.625                   -3.40922         165.571         -46.4819         -45.735          -46.482        -45.7352       -0.0254234         142.075
0.626                   -3.47093         164.713         -46.4047        -47.6867         -46.4048        -47.6873       -0.0257014         141.992
0.627                   -3.53494         163.847         -46.3271        -49.6352         -46.3271        -49.6363       -0.0259828         141.909
0.628                   -3.60136         162.974          -46.249        -51.5811          -46.249        -51.5825       -0.0262678         141.826
0.629                   -3.67027         162.093         -46.1704        -53.5245         -46.1703        -53.5263       -0.0265564         141.742
0.63                    -3.74178         161.205         -46.0913        -55.4659         -46.0913         -55.468       -0.0268487         141.658
0.631                   -3.81597         160.311         -46.0118        -57.4056         -46.0117        -57.4079       -0.0271449         141.574
0.632                   -3.89294          159.41         -45.9319        -59.3439         -45.9318        -59.3464       -0.0274451         141.489
0.633                   -3.97279         158.504         -45.8515        -61.2811         -45.8514        -61.2838       -0.0277494         141.405
0.634                   -4.05561         157.593         -45.7708        -63.2174         -45.7707        -63.2202       -0.0280579          141.32
0.635                    -4.1415         156.678         -45.6897        -65.1532         -45.6896        -65.1561       -0.0283707         141.234
0.636                   -4.23055         155.759         -45.6083        -67.0887         -45.6082        -67.0916       -0.0286879         141.148
0.637                   -4.32285         154.836         -45.5266         -69.024         -45.5265        -69.0269       -0.0290097         141.062
0.638                    -4.4185         153.912         -45.4446        -70.9593         -45.4446        -70.9623       -0.0293361         140.976
0.639                   -4.51759         152.985         -45.3624        -72.8949         -45.3624        -72.8979       -0.0296674          140.89
0.64                     -4.6202         152.057           -45.28        -74.8309           -45.28        -74.8338       -0.0300036         140.803
0.641                   -4.72642          151.13         -45.1974        -76.7674         -45.1974        -76.7702       -0.0303449         140.715
0.642                   -4.83634         150.203         -45.1147        -78.7045         -45.1147        -78.7072       -0.0306915         140.628
0.643                   -4.95004         149.278          -45.032        -80.6423          -45.032        -80.6448       -0.0310433          140.54
0.644                   -5.06758         148.356         -44.9491        -82.5808         -44.9491        -82.5832       -0.0314007         140.452
0.645                   -5.18906         147.437         -44.8663        -84.5202         -44.8663        -84.5224       -0.0317637         140.363
0.646                   -5.31452         146.523         -44.7835        -86.4603         -44.7835        -86.4623       -0.0321324         140.274
0.647                   -5.44405         145.616         -44.7008        -88.4011         -44.7008         -88.403       -0.0325071         140.185
0.648                   -5.57769         144.716         -44.6181        -90.3427         -44.6182        -90.3444       -0.0328879         140.095
0.649                    -5.7155         143.824         -44.5357         -92.285         -44.5357        -92.2865        -0.033275         140.005
0.65                    -5.85751         142.942         -44.4533        -94.2279         -44.4534        -94.2292       -0.0336684         139.915
0.651                   -6.00376         142.072         -44.3712        -96.1713         -44.3713        -96.1724       -0.0340684         139.824
0.652                   -6.15428         141.215         -44.2894         -98.115         -44.2894         -98.116       -0.0344751         139.733
0.653                   -6.30907         140.372         -44.2078        -100.059         -44.2078         -100.06       -0.0348887         139.642
0.654                   -6.46814         139.545         -44.1265        -102.003         -44.1266        -102.004       -0.0353094          139.55
0.655                   -6.63148         138.736         -44.0456        -103.947         -44.0456        -103.948       -0.0357373         139.458
0.656                   -6.79905         137.946          -43.965        -105.891          -43.965        -105.891       -0.0361726         139.365
0.657                   -6.97083         137.177         -43.8848        -107.834         -43.8848        -107.834       -0.0366156         139.272
0.658                   -7.14673         136.432         -43.8049        -109.776          -43.805        -109.776       -0.0370663         139.179
0.659                    -7.3267         135.711         -43.7255        -111.718         -43.7255        -111.718        -0.037525         139.085
0.66                    -7.51062         135.017         -43.6465        -113.658         -43.6465        -113.658       -0.0379918         138.991
0.661                   -7.69837         134.353          -43.568        -115.597          -43.568        -115.596        -0.038467         138.896
0.662                   -7.88982         133.719         -43.4899        -117.534         -43.4899        -117.533       -0.0389508         138.801
0.663                   -8.08478         133.118         -43.4122        -119.469         -43.4122        -119.468       -0.0394433         138.706
0.664                   -8.28306         132.551         -43.3349        -121.402         -43.3349        -121.401       -0.0399448          138.61
0.665                   -8.48443         132.022         -43.2581        -123.332         -43.2581        -123.331       -0.0404555         138.513
0.666                   -8.68863         131.531         -43.1818        -125.259         -43.1817        -125.259       -0.0409755         138.416
0.667                   -8.89537         131.082         -43.1058        -127.183         -43.1058        -127.183       -0.0415052         138.319
0.668                   -9.10431         130.675         -43.0302        -129.104         -43.0302        -129.104       -0.0420447         138.221
0.669                   -9.31511         130.312         -42.9551        -131.021          -42.955        -131.021       -0.0425943         138.123
0.67                    -9.52735         129.996         -42.8803        -132.935         -42.8802        -132.934       -0.0431542         138.024
0.671                   -9.74061         129.727         -42.8058        -134.844         -42.8058        -134.843       -0.0437247         137.925
0.672                   -9.95442         129.507         -42.7317        -136.749         -42.7316        -136.748       -0.0443059         137.825
0.673                   -10.1683         129.337         -42.6578        -138.649         -42.6578        -138.648       -0.0448981         137.725
0.674                   -10.3816         129.218         -42.5842        -140.544         -42.5841        -140.543       -0.0455017         137.625
0.675                   -10.5939         129.151         -42.5108        -142.434         -42.5107        -142.433       -0.0461168         137.523
0.676                   -10.8045         129.134         -42.4375        -144.319         -42.4375        -144.318       -0.0467437         137.422
0.677                   -11.0128          129.17         -42.3644        -146.198         -42.3644        -146.197       -0.0473827         137.319
0.678                   -11.2182         129.256         -42.2914        -148.072         -42.2914        -148.071        -0.048034         137.216
0.679                     -11.42         129.392         -42.2184        -149.939         -42.2184        -149.939        -0.048698         137.113
0.68                    -11.6176         129.576         -42.1454        -151.801         -42.1454        -151.801       -0.0493749         137.009
0.681                   -11.8104         129.806         -42.0724        -153.657         -42.0723        -153.657       -0.0500651         136.905
0.682                   -11.9976          130.08         -41.9993        -155.507         -41.9992        -155.507       -0.0507688         136.799
0.683                   -12.1789         130.394         -41.9259        -157.351         -41.9259         -157.35       -0.0514864         136.694
0.684                   -12.3535         130.745         -41.8524        -159.188         -41.8524        -159.188       -0.0522181         136.587
0.685                   -12.5211          131.13         -41.7786         -161.02         -41.7786        -161.019       -0.0529644          136.48
0.686                   -12.6812         131.542         -41.7045        -162.845         -41.7045        -162.844       -0.0537254         136.373
0.687                   -12.8334         131.979         -41.6301        -164.663           -41.63        -164.663       -0.0545017         136.265
0.688                   -12.9775         132.435         -41.5551        -166.476         -41.5551        -166.476       -0.0552935         136.156
0.689                   -13.1134         132.904         -41.4798        -168.282         -41.4797        -168.282       -0.0561012         136.047
0.69                     -13.241         133.381         -41.4038        -170.083         -41.4038        -170.082       -0.0569251         135.936
0.691                   -13.3602         133.861         -41.3273        -171.877         -41.3273        -171.877       -0.0577657         135.826
0.692                   -13.4713         134.338         -41.2501        -173.666         -41.2501        -173.666       -0.0586234         135.714
0.693                   -13.5745         134.808         -41.1723        -175.449         -41.1722        -175.449       -0.0594985         135.602
0.694                     -13.67         135.266         -41.0937        -177.226         -41.0936        -177.226       -0.0603915         135.489
0.695                   -13.7582         135.706         -41.0143        -178.999         -41.0142        -178.998       -0.0613028         135.376
0.696                   -13.8397         136.125          -40.934         179.234          -40.934         179.235       -0.0622328         135.261
0.697                   -13.9149          136.52         -40.8529         177.472         -40.8528         177.473       -0.0631819         135.146