! TOUCHSTONE file generated by CST MICROWAVE STUDIO
! Date and time: Sat Oct 24 11:16:35 2020
! Project name: Scenario_1_Circular_Tissue_in_Line.cst
! Parameters = {L_HA=400; MT=2.54; Rad_Dielectric=30; Rad_Lower=7.3; Rad_Upper=30; a_HA=580; a_WG=246; b_HA=500; b_WG=121; c_HA=0; c_WG=187; d_feed=85; dx1=709.92; h_feed=15; h_lower=18; h_upper=40}
! Header version: 2018
! Port assignment regex: !\s*Touchstone port\s*([0-9]+)\s*=\s*(CST MWS port|CST DS port)\s*([0-9]+|Zmin|Zmax)\s*\(\"(.*)\"\)(\s*mode\s*([0-9]+))?.*
! Touchstone port assignment:
! Touchstone port 1 = CST MWS port 1 ("")
! Touchstone port 2 = CST MWS port 2 ("")
# GHz S DB R 50
0.5                     -0.14987        -122.267         -62.1757        -176.017         -62.1754        -176.018      -0.00768113         151.109
0.501                  -0.154597        -122.772         -62.0465        -177.457         -62.0514        -177.463      -0.00773458         151.044
0.502                  -0.159759        -123.277         -61.9156         -178.91         -61.9255        -178.922      -0.00778875         150.979
0.503                  -0.165352        -123.783         -61.7831         179.623         -61.7978         179.605      -0.00784365         150.913
0.504                  -0.171373        -124.289          -61.649         178.142         -61.6684          178.12      -0.00789931         150.848
0.505                   -0.17782        -124.796         -61.5132         176.648         -61.5371          176.62      -0.00795572         150.782
0.506                   -0.18469        -125.303         -61.3758         175.139          -61.404         175.107      -0.00801292         150.717
0.507                   -0.19198        -125.811         -61.2368         173.617         -61.2692         173.581       -0.0080709         150.651
0.508                  -0.199686        -126.318         -61.0962          172.08         -61.1325          172.04      -0.00812969         150.585
0.509                  -0.207805        -126.826         -60.9539         170.529         -60.9941         170.485      -0.00818929         150.519
0.51                   -0.216334        -127.334         -60.8101         168.963         -60.8539         168.915      -0.00824973         150.453
0.511                   -0.22527        -127.843         -60.6647         167.383          -60.712         167.332      -0.00831102         150.387
0.512                  -0.234607        -128.351         -60.5178         165.787         -60.5684         165.733      -0.00837318         150.321
0.513                  -0.244343         -128.86         -60.3693         164.176          -60.423          164.12      -0.00843622         150.255
0.514                  -0.254473        -129.369         -60.2193          162.55          -60.276         162.492      -0.00850016         150.189
0.515                  -0.264994        -129.878         -60.0679         160.909         -60.1274         160.849      -0.00856501         150.122
0.516                  -0.275901        -130.388          -59.915         159.252         -59.9771          159.19      -0.00863079         150.056
0.517                  -0.287189        -130.897         -59.7608         157.579         -59.8252         157.516      -0.00869753         149.989
0.518                  -0.298855        -131.407         -59.6051          155.89         -59.6718         155.827      -0.00876523         149.923
0.519                  -0.310894        -131.917         -59.4481         154.184         -59.5168         154.121      -0.00883392         149.856
0.52                   -0.323302        -132.427         -59.2899         152.463         -59.3604           152.4      -0.00890361         149.789
0.521                  -0.336073        -132.937         -59.1303         150.724         -59.2026         150.662      -0.00897433         149.722
0.522                  -0.349202        -133.447         -58.9696         148.969         -59.0434         148.908      -0.00904609         149.655
0.523                  -0.362686        -133.958         -58.8078         147.197         -58.8829         147.138      -0.00911891         149.588
0.524                  -0.376519        -134.468         -58.6449         145.408         -58.7211          145.35      -0.00919282         149.521
0.525                  -0.390696        -134.979          -58.481         143.602         -58.5581         143.546      -0.00926783         149.454
0.526                  -0.405212         -135.49         -58.3161         141.778          -58.394         141.725      -0.00934396         149.386
0.527                  -0.420062            -136         -58.1503         139.936         -58.2288         139.886      -0.00942124         149.319
0.528                  -0.435241        -136.511         -57.9837         138.077         -58.0627          138.03       -0.0094997         149.251
0.529                  -0.450744        -137.023         -57.8164           136.2         -57.8956         136.157      -0.00957934         149.184
0.53                   -0.466565        -137.534         -57.6484         134.305         -57.7277         134.266      -0.00966019         149.116
0.531                  -0.482699        -138.045         -57.4799         132.392          -57.559         132.357      -0.00974229         149.048
0.532                  -0.499141        -138.557         -57.3109          130.46         -57.3897          130.43      -0.00982564          148.98
0.533                  -0.515885        -139.069         -57.1415         128.511         -57.2198         128.485      -0.00991028         148.912
0.534                  -0.532926        -139.581         -56.9718         126.543         -57.0495         126.522      -0.00999623         148.844
0.535                   -0.55026        -140.093         -56.8019         124.557         -56.8788          124.54       -0.0100835         148.776
0.536                   -0.56788        -140.606         -56.6319         122.552         -56.7079         122.541       -0.0101722         148.708
0.537                  -0.585781        -141.119         -56.4619         120.529         -56.5368         120.523       -0.0102622         148.639
0.538                  -0.603958        -141.632         -56.2921         118.488         -56.3657         118.487       -0.0103536         148.571
0.539                  -0.622406        -142.145         -56.1225         116.428         -56.1947         116.433       -0.0104465         148.502
0.54                   -0.641119        -142.659         -55.9533         114.351         -56.0239         114.361       -0.0105408         148.433
0.541                  -0.660093        -143.173         -55.7845         112.255         -55.8535         112.271       -0.0106367         148.364
0.542                  -0.679321        -143.688         -55.6164         110.142         -55.6835         110.163        -0.010734         148.295
0.543                  -0.698799        -144.203         -55.4489         108.012         -55.5141         108.037       -0.0108329         148.226
0.544                  -0.718523        -144.718         -55.2823         105.864         -55.3454         105.894       -0.0109334         148.157
0.545                  -0.738486        -145.234         -55.1167         103.699         -55.1776         103.733       -0.0110354         148.088
0.546                  -0.758684        -145.751         -54.9522         101.518         -55.0108         101.556       -0.0111391         148.019
0.547                  -0.779112        -146.268         -54.7889         99.3204         -54.8451         99.3626       -0.0112445         147.949
0.548                  -0.799765        -146.786         -54.6269         97.1073         -54.6807          97.153       -0.0113515          147.88
0.549                   -0.82064        -147.305         -54.4664          94.879         -54.5176         94.9278       -0.0114603          147.81
0.55                   -0.841731        -147.824         -54.3074         92.6361         -54.3561         92.6876       -0.0115708          147.74
0.551                  -0.863034        -148.344         -54.1502         90.3793         -54.1962         90.4329        -0.011683          147.67
0.552                  -0.884545        -148.865         -53.9948          88.109          -54.038         88.1644        -0.011797           147.6
0.553                   -0.90626        -149.386         -53.8412         85.8261         -53.8818         85.8826       -0.0119129          147.53
0.554                  -0.928175        -149.909         -53.6897         83.5313         -53.7275         83.5885       -0.0120306          147.46
0.555                  -0.950286        -150.433         -53.5403         81.2253         -53.5754         81.2826       -0.0121501         147.389
0.556                   -0.97259        -150.958         -53.3932          78.909         -53.4254         78.9659       -0.0122716         147.319
0.557                  -0.995083        -151.484         -53.2483         76.5833         -53.2778         76.6392       -0.0123949         147.248
0.558                   -1.01776        -152.011         -53.1057          74.249         -53.1325         74.3034       -0.0125202         147.177
0.559                   -1.04063         -152.54         -52.9656         71.9071         -52.9897         71.9594       -0.0126475         147.106
0.56                    -1.06367         -153.07          -52.828         69.5585         -52.8494         69.6081       -0.0127767         147.035
0.561                    -1.0869        -153.601         -52.6929         67.2042         -52.7118         67.2507       -0.0129079         146.964
0.562                    -1.1103        -154.134         -52.5604         64.8451         -52.5767         64.8881       -0.0130411         146.893
0.563                   -1.13387        -154.668         -52.4305         62.4824         -52.4444         62.5212       -0.0131764         146.822
0.564                   -1.15762        -155.205         -52.3032         60.1169         -52.3148         60.1512       -0.0133136          146.75
0.565                   -1.18155        -155.743         -52.1786         57.7497         -52.1879         57.7791        -0.013453         146.679
0.566                   -1.20565        -156.283         -52.0566         55.3817         -52.0637          55.406       -0.0135943         146.607
0.567                   -1.22991        -156.824         -51.9372          53.014         -51.9422         53.0327       -0.0137378         146.535
0.568                   -1.25436        -157.368         -51.8204         50.6475         -51.8235         50.6604       -0.0138832         146.463
0.569                   -1.27897        -157.915         -51.7062         48.2832         -51.7075         48.2901       -0.0140308         146.391
0.57                    -1.30376        -158.463         -51.5945          45.922         -51.5941         45.9227       -0.0141804         146.318
0.571                   -1.32873        -159.014         -51.4852         43.5647         -51.4833         43.5591       -0.0143321         146.246
0.572                   -1.35387        -159.567         -51.3785         41.2122         -51.3751         41.2003       -0.0144858         146.173
0.573                    -1.3792        -160.123          -51.274         38.8653         -51.2693         38.8471       -0.0146415         146.101
0.574                   -1.40472        -160.682         -51.1719         36.5247          -51.166         36.5003       -0.0147993         146.028
0.575                   -1.43042        -161.244          -51.072         34.1912          -51.065         34.1606       -0.0149591         145.955
0.576                   -1.45632        -161.808         -50.9741         31.8655         -50.9663         31.8288       -0.0151209         145.882
0.577                   -1.48241        -162.376         -50.8784         29.5481         -50.8697         29.5055       -0.0152847         145.809
0.578                   -1.50872        -162.947         -50.7845         27.2395         -50.7752         27.1913       -0.0154504         145.735
0.579                   -1.53524        -163.521         -50.6926         24.9404         -50.6826         24.8868       -0.0156181         145.662
0.58                    -1.56198        -164.099         -50.6023         22.6511         -50.5919         22.5924       -0.0157877         145.588
0.581                   -1.58895        -164.681         -50.5137          20.372         -50.5029         20.3086       -0.0159591         145.514
0.582                   -1.61617        -165.266         -50.4266         18.1034         -50.4156         18.0357       -0.0161325          145.44
0.583                   -1.64364        -165.856          -50.341         15.8457         -50.3298          15.774       -0.0163076         145.366
0.584                   -1.67137        -166.449         -50.2567          13.599         -50.2454         13.5237       -0.0164846         145.292
0.585                   -1.69938        -167.047         -50.1736         11.3636         -50.1623         11.2851       -0.0166633         145.217
0.586                   -1.72769        -167.649         -50.0916         9.13948         -50.0804         9.05829       -0.0168438         145.143
0.587                   -1.75631        -168.256         -50.0106         6.92679         -49.9996         6.84332        -0.017026         145.068
0.588                   -1.78525        -168.867         -49.9305         4.72555         -49.9197         4.64023       -0.0172098         144.993
0.589                   -1.81455        -169.484         -49.8513         2.53574         -49.8407           2.449       -0.0173954         144.918
0.59                     -1.8442        -170.105         -49.7727        0.357292         -49.7625        0.269589       -0.0175826         144.843
0.591                   -1.87425        -170.732         -49.6948        -1.80989         -49.6849        -1.89813       -0.0177715         144.767
0.592                   -1.90472        -171.364         -49.6174        -3.96594         -49.6079        -4.05429       -0.0179619         144.692
0.593                   -1.93562        -172.002         -49.5404        -6.11104         -49.5314        -6.19907        -0.018154         144.616
0.594                   -1.96699        -172.645         -49.4638        -8.24538         -49.4552        -8.33271       -0.0183476          144.54
0.595                   -1.99885        -173.294         -49.3874        -10.3692         -49.3793        -10.4554       -0.0185429         144.464
0.596                   -2.03125         -173.95         -49.3112        -12.4827         -49.3036        -12.5675       -0.0187398         144.388
0.597                   -2.06421        -174.612         -49.2352        -14.5863         -49.2281        -14.6693       -0.0189382         144.311
0.598                   -2.09776         -175.28         -49.1592        -16.6802         -49.1526        -16.7611       -0.0191383         144.234
0.599                   -2.13196        -175.955         -49.0832        -18.7648         -49.0771        -18.8432         -0.01934         144.158
0.6                     -2.16683        -176.636         -49.0071        -20.8403         -49.0015         -20.916       -0.0195434         144.081
0.601                   -2.20243        -177.325         -48.9309        -22.9071         -48.9258        -22.9799       -0.0197484         144.003
0.602                    -2.2388         -178.02         -48.8546        -24.9657         -48.8499        -25.0353       -0.0199552         143.926
0.603                   -2.27599        -178.723          -48.778        -27.0164         -48.7738        -27.0826       -0.0201637         143.848
0.604                   -2.31405        -179.433         -48.7011        -29.0596         -48.6974        -29.1222       -0.0203741         143.771
0.605                   -2.35303          179.85          -48.624        -31.0956         -48.6207        -31.1545       -0.0205863         143.693
0.606                     -2.393         179.125         -48.5465        -33.1249         -48.5436          -33.18       -0.0208004         143.615
0.607                   -2.43402         178.392         -48.4687        -35.1478         -48.4661         -35.199       -0.0210164         143.536
0.608                   -2.47615         177.651         -48.3904        -37.1649         -48.3882        -37.2121       -0.0212345         143.458
0.609                   -2.51946         176.903         -48.3118        -39.1764         -48.3099        -39.2196       -0.0214547         143.379
0.61                    -2.56402         176.147         -48.2327        -41.1828         -48.2312        -41.2219       -0.0216771           143.3
0.611                    -2.6099         175.382         -48.1532        -43.1845         -48.1519        -43.2196       -0.0219018          143.22
0.612                   -2.65718          174.61         -48.0732        -45.1818         -48.0722        -45.2129       -0.0221288         143.141
0.613                   -2.70594          173.83         -47.9928        -47.1753          -47.992        -47.2024       -0.0223582         143.061
0.614                   -2.75627         173.042         -47.9119        -49.1651         -47.9113        -49.1884       -0.0225901         142.981
0.615                   -2.80825         172.246         -47.8306        -51.1518         -47.8301        -51.1713       -0.0228247         142.901
0.616                   -2.86198         171.443         -47.7488        -53.1357         -47.7485        -53.1515       -0.0230619         142.821
0.617                   -2.91753         170.631         -47.6666        -55.1172         -47.6664        -55.1294        -0.023302          142.74
0.618                   -2.97502         169.813         -47.5839        -57.0965         -47.5838        -57.1053       -0.0235449         142.659
0.619                   -3.03453         168.987         -47.5008         -59.074         -47.5007        -59.0796       -0.0237908         142.578
0.62                    -3.09616         168.154         -47.4173        -61.0501         -47.4173        -61.0527       -0.0240399         142.497
0.621                   -3.16002         167.315         -47.3334         -63.025         -47.3334        -63.0247       -0.0242921         142.415
0.622                    -3.2262         166.469         -47.2491        -64.9991         -47.2491        -64.9961       -0.0245477         142.334
0.623                    -3.2948         165.617         -47.1645        -66.9725         -47.1645        -66.9671       -0.0248067         142.252
0.624                   -3.36593          164.76         -47.0795        -68.9456         -47.0795        -68.9379       -0.0250692         142.169
0.625                   -3.43969         163.898         -46.9943        -70.9186         -46.9943        -70.9089       -0.0253353         142.087
0.626                   -3.51618         163.032         -46.9088        -72.8917         -46.9087        -72.8802       -0.0256052         142.004
0.627                   -3.59548         162.162         -46.8231        -74.8652         -46.8229         -74.852       -0.0258789         141.921
0.628                   -3.67771         161.289         -46.7372        -76.8391          -46.737        -76.8246       -0.0261566         141.837
0.629                   -3.76294         160.414         -46.6511        -78.8137         -46.6508        -78.7981       -0.0264383         141.754
0.63                    -3.85127         159.537         -46.5649        -80.7891         -46.5645        -80.7726       -0.0267243          141.67
0.631                   -3.94277          158.66         -46.4785        -82.7654         -46.4781        -82.7482       -0.0270145         141.586
0.632                   -4.03751         157.783         -46.3922        -84.7428         -46.3917        -84.7251       -0.0273092         141.501
0.633                   -4.13557         156.908         -46.3058        -86.7212         -46.3052        -86.7033       -0.0276084         141.416
0.634                   -4.23699         156.035         -46.2194        -88.7008         -46.2187        -88.6828       -0.0279122         141.331
0.635                   -4.34183         155.165         -46.1331        -90.6816         -46.1324        -90.6637       -0.0282207         141.246
0.636                   -4.45011         154.301         -46.0469        -92.6636         -46.0461         -92.646       -0.0285342          141.16
0.637                   -4.56187         153.442         -45.9607        -94.6468         -45.9599        -94.6296       -0.0288526         141.074
0.638                   -4.67711         152.591         -45.8748        -96.6311         -45.8739        -96.6146       -0.0291761         140.988
0.639                   -4.79583         151.748         -45.7891        -98.6166         -45.7882        -98.6008       -0.0295049         140.901
0.64                    -4.91801         150.915         -45.7036        -100.603         -45.7026        -100.588       -0.0298389         140.814
0.641                   -5.04363         150.094         -45.6183         -102.59         -45.6174        -102.576       -0.0301785         140.727
0.642                   -5.17261         149.285         -45.5334        -104.579         -45.5325        -104.566       -0.0305236          140.64
0.643                   -5.30492         148.489         -45.4488        -106.568         -45.4479        -106.556       -0.0308745         140.552
0.644                   -5.44045         147.709         -45.3645        -108.557         -45.3637        -108.546       -0.0312311         140.464
0.645                   -5.57911         146.946         -45.2807        -110.547         -45.2799        -110.538       -0.0315937         140.375
0.646                   -5.72079           146.2         -45.1972        -112.537         -45.1965        -112.529       -0.0319625         140.286
0.647                   -5.86534         145.474         -45.1142        -114.527         -45.1135         -114.52       -0.0323374         140.197
0.648                   -6.01262         144.768         -45.0316        -116.517          -45.031        -116.511       -0.0327187         140.108
0.649                   -6.16246         144.083         -44.9495        -118.506          -44.949        -118.502       -0.0331064         140.018
0.65                    -6.31468          143.42         -44.8678        -120.494         -44.8674        -120.491       -0.0335008         139.928
0.651                   -6.46909         142.781         -44.7866        -122.482         -44.7864         -122.48       -0.0339019         139.837
0.652                   -6.62546         142.166          -44.706        -124.468         -44.7058        -124.468         -0.03431         139.746
0.653                   -6.78359         141.576         -44.6258        -126.453         -44.6258        -126.454        -0.034725         139.655
0.654                   -6.94323         141.011         -44.5461        -128.436         -44.5462        -128.438       -0.0351473         139.563
0.655                   -7.10415         140.473         -44.4669        -130.418         -44.4671         -130.42       -0.0355769         139.471
0.656                    -7.2661         139.961         -44.3882        -132.396         -44.3886        -132.399       -0.0360139         139.378
0.657                   -7.42882         139.476         -44.3099        -134.373         -44.3104        -134.376       -0.0364586         139.285
0.658                   -7.59206         139.017         -44.2321        -136.346         -44.2328         -136.35       -0.0369111         139.192
0.659                   -7.75556         138.586         -44.1548        -138.317         -44.1555        -138.321       -0.0373716         139.098
0.66                    -7.91905          138.18         -44.0778        -140.284         -44.0787        -140.289       -0.0378402         139.004
0.661                   -8.08229         137.801         -44.0013        -142.247         -44.0023        -142.252        -0.038317          138.91
0.662                   -8.24502         137.448         -43.9252        -144.207         -43.9262        -144.212       -0.0388023         138.815
0.663                     -8.407          137.12         -43.8493        -146.162         -43.8505        -146.168       -0.0392963         138.719
0.664                   -8.56799         136.816         -43.7738        -148.113          -43.775        -148.119        -0.039799         138.624
0.665                   -8.72778         136.535         -43.6986         -150.06         -43.6998        -150.065       -0.0403108         138.527
0.666                   -8.88616         136.277         -43.6235        -152.002         -43.6248        -152.007       -0.0408317         138.431
0.667                   -9.04292          136.04         -43.5487        -153.939           -43.55        -153.944        -0.041362         138.334
0.668                    -9.1979         135.823          -43.474        -155.871         -43.4753        -155.876       -0.0419018         138.236
0.669                   -9.35093         135.625         -43.3994        -157.798         -43.4007        -157.802       -0.0424514         138.138
0.67                    -9.50187         135.444         -43.3249        -159.719         -43.3261        -159.723        -0.043011         138.039
0.671                   -9.65061         135.279         -43.2504        -161.636         -43.2515        -161.639       -0.0435807          137.94
0.672                   -9.79703         135.128         -43.1759        -163.546         -43.1769        -163.549       -0.0441608         137.841
0.673                   -9.94108          134.99         -43.1012        -165.451         -43.1021        -165.454       -0.0447516         137.741
0.674                   -10.0827         134.862         -43.0264        -167.351         -43.0272        -167.353       -0.0453531          137.64
0.675                   -10.2218         134.744         -42.9515        -169.245         -42.9521        -169.246       -0.0459657         137.539
0.676                   -10.3585         134.634         -42.8763        -171.133         -42.8767        -171.134       -0.0465896         137.438
0.677                   -10.4927          134.53         -42.8007        -173.016          -42.801        -173.017        -0.047225         137.336
0.678                   -10.6245         134.431         -42.7249        -174.893         -42.7249        -174.894       -0.0478722         137.233
0.679                   -10.7539         134.334         -42.6486        -176.765         -42.6484        -176.765       -0.0485315          137.13
0.68                     -10.881         134.239         -42.5719        -178.632         -42.5714        -178.631        -0.049203         137.026
0.681                   -11.0059         134.143         -42.4947         179.507          -42.494         179.508        -0.049887         136.922
0.682                   -11.1288         134.047         -42.4169         177.651         -42.4159         177.651       -0.0505839         136.817
0.683                   -11.2497         133.947         -42.3385           175.8         -42.3373           175.8       -0.0512939         136.711
0.684                   -11.3689         133.844         -42.2595         173.953          -42.258         173.954       -0.0520173         136.605
0.685                   -11.4864         133.735         -42.1798         172.112          -42.178         172.112       -0.0527544         136.499
0.686                   -11.6025          133.62         -42.0993         170.274         -42.0973         170.274       -0.0535055         136.391
0.687                   -11.7174         133.498         -42.0181         168.441         -42.0157          168.44       -0.0542708         136.283
0.688                   -11.8313         133.368          -41.936         166.612         -41.9334         166.611       -0.0550508         136.175
0.689                   -11.9444         133.229         -41.8531         164.786         -41.8503         164.784       -0.0558457         136.066
0.69                    -12.0569         133.081         -41.7694         162.964         -41.7662         162.961       -0.0566559         135.956
0.691                   -12.1692         132.923         -41.6847         161.145         -41.6812         161.141       -0.0574817         135.845
0.692                   -12.2814         132.755          -41.599         159.328         -41.5953         159.324       -0.0583235         135.734
0.693                   -12.3938         132.577         -41.5124         157.514         -41.5085         157.509       -0.0591817         135.622
0.694                   -12.5066         132.388         -41.4247         155.703         -41.4206         155.696       -0.0600565          135.51
0.695                   -12.6203         132.189         -41.3361         153.893         -41.3317         153.885       -0.0609485         135.396
0.696                    -12.735          131.98         -41.2464         152.084         -41.2419         152.076        -0.061858         135.282
0.697                    -12.851         131.761         -41.1557         150.277          -41.151         150.267       -0.0627854         135.167