! TOUCHSTONE file generated by CST MICROWAVE STUDIO
! Date and time: Sat Oct 24 11:16:55 2020
! Project name: Scenario_1_Circular_Tissue_in_Line.cst
! Parameters = {L_HA=400; MT=2.54; Rad_Dielectric=30; Rad_Lower=7.3; Rad_Upper=30; a_HA=580; a_WG=246; b_HA=500; b_WG=121; c_HA=0; c_WG=187; d_feed=85; dx1=761.88; h_feed=15; h_lower=18; h_upper=40}
! Header version: 2018
! Port assignment regex: !\s*Touchstone port\s*([0-9]+)\s*=\s*(CST MWS port|CST DS port)\s*([0-9]+|Zmin|Zmax)\s*\(\"(.*)\"\)(\s*mode\s*([0-9]+))?.*
! Touchstone port assignment:
! Touchstone port 1 = CST MWS port 1 ("")
! Touchstone port 2 = CST MWS port 2 ("")
# GHz S DB R 50
0.5                    -0.135691        -122.272         -62.6759         155.798         -62.6759         155.798      -0.00754101          151.12
0.501                  -0.137727        -122.719         -62.5287         154.153         -62.5288         154.155        -0.007614         151.055
0.502                   -0.14012        -123.168         -62.3795         152.496         -62.3797         152.499      -0.00768522          150.99
0.503                  -0.142878        -123.621         -62.2282         150.827         -62.2284         150.832      -0.00775474         150.924
0.504                  -0.146013        -124.077         -62.0748         149.146         -62.0752         149.152      -0.00782264         150.859
0.505                  -0.149534        -124.535         -61.9195         147.452         -61.9199         147.459      -0.00788902         150.793
0.506                  -0.153451        -124.997         -61.7623         145.745         -61.7627         145.753      -0.00795404         150.728
0.507                  -0.157775        -125.461         -61.6031         144.026         -61.6036         144.035      -0.00801786         150.662
0.508                  -0.162515        -125.928         -61.4421         142.293         -61.4426         142.303      -0.00808067         150.596
0.509                   -0.16768        -126.399         -61.2793         140.546         -61.2798         140.557      -0.00814267         150.531
0.51                    -0.17328        -126.871         -61.1148         138.785         -61.1153         138.797      -0.00820407         150.465
0.511                  -0.179323        -127.347         -60.9485          137.01         -60.9491         137.022       -0.0082651         150.399
0.512                  -0.185819        -127.825         -60.7807         135.221         -60.7812         135.233      -0.00832599         150.333
0.513                  -0.192776        -128.306         -60.6113         133.416         -60.6118         133.429      -0.00838697         150.266
0.514                  -0.200202        -128.789         -60.4404         131.597         -60.4409         131.609      -0.00844827           150.2
0.515                  -0.208103        -129.275         -60.2681         129.761         -60.2686         129.774      -0.00851011         150.134
0.516                  -0.216488        -129.763         -60.0945          127.91          -60.095         127.923       -0.0085727         150.067
0.517                  -0.225362        -130.253         -59.9196         126.042         -59.9201         126.055      -0.00863623         150.001
0.518                  -0.234731        -130.746         -59.7437         124.158         -59.7441          124.17      -0.00870091         149.934
0.519                  -0.244601         -131.24         -59.5666         122.256          -59.567         122.269      -0.00876689         149.867
0.52                   -0.254976        -131.737         -59.3886         120.337          -59.389          120.35      -0.00883435           149.8
0.521                   -0.26586        -132.235         -59.2098         118.401         -59.2101         118.413      -0.00890341         149.734
0.522                  -0.277255        -132.735         -59.0302         116.447         -59.0305         116.458       -0.0089742         149.666
0.523                  -0.289164        -133.237         -58.8501         114.474         -58.8503         114.485      -0.00904684         149.599
0.524                  -0.301589        -133.741         -58.6694         112.483         -58.6696         112.494       -0.0091214         149.532
0.525                  -0.314528        -134.246         -58.4884         110.473         -58.4885         110.483      -0.00919798         149.465
0.526                  -0.327982        -134.752         -58.3071         108.445         -58.3072         108.454      -0.00927664         149.397
0.527                  -0.341949         -135.26         -58.1258         106.397         -58.1258         106.406      -0.00935741          149.33
0.528                  -0.356425        -135.769         -57.9445         104.329         -57.9445         104.338      -0.00944034         149.262
0.529                  -0.371406        -136.279         -57.7634         102.243         -57.7633          102.25      -0.00952546         149.195
0.53                   -0.386888         -136.79         -57.5827         100.137         -57.5825         100.143      -0.00961277         149.127
0.531                  -0.402864        -137.302         -57.4024         98.0112         -57.4022         98.0172      -0.00970229         149.059
0.532                  -0.419326        -137.815         -57.2228         95.8662         -57.2226         95.8714        -0.009794         148.991
0.533                  -0.436264        -138.328         -57.0441         93.7018         -57.0439         93.7062      -0.00988789         148.923
0.534                  -0.453669        -138.843         -56.8664         91.5183         -56.8661         91.5219      -0.00998395         148.855
0.535                  -0.471528        -139.357         -56.6898         89.3157         -56.6895         89.3185       -0.0100821         148.786
0.536                   -0.48983        -139.872         -56.5145         87.0945         -56.5142         87.0965       -0.0101824         148.718
0.537                  -0.508558        -140.387         -56.3408         84.8549         -56.3404         84.8562       -0.0102848          148.65
0.538                  -0.527698        -140.903         -56.1687         82.5974         -56.1683          82.598       -0.0103892         148.581
0.539                  -0.547232        -141.418         -55.9984         80.3226          -55.998         80.3224       -0.0104957         148.512
0.54                   -0.567143        -141.934         -55.8302         78.0309         -55.8298           78.03        -0.010604         148.444
0.541                   -0.58741         -142.45          -55.664         75.7231         -55.6637         75.7216       -0.0107143         148.375
0.542                  -0.608014        -142.966         -55.5002         73.3999         -55.4999         73.3978       -0.0108264         148.306
0.543                  -0.628931        -143.482         -55.3389         71.0621         -55.3385         71.0594       -0.0109403         148.237
0.544                  -0.650141        -143.997         -55.1801         68.7106         -55.1797         68.7074        -0.011056         148.168
0.545                  -0.671618        -144.513         -55.0241         66.3465         -55.0237         66.3427       -0.0111734         148.098
0.546                   -0.69334        -145.029         -54.8709         63.9706         -54.8705         63.9664       -0.0112924         148.029
0.547                   -0.71528        -145.545         -54.7206         61.5841         -54.7203         61.5796       -0.0114131          147.96
0.548                  -0.737413         -146.06         -54.5734         59.1882         -54.5731         59.1833       -0.0115353          147.89
0.549                  -0.759714        -146.576         -54.4293         56.7841         -54.4291         56.7789        -0.011659          147.82
0.55                   -0.782156        -147.092         -54.2884         54.3729         -54.2882         54.3676       -0.0117842         147.751
0.551                  -0.804715        -147.608         -54.1508         51.9561         -54.1506         51.9506       -0.0119108         147.681
0.552                  -0.827363        -148.124         -54.0165         49.5348         -54.0163         49.5292       -0.0120388         147.611
0.553                  -0.850076        -148.641         -53.8854         47.1105         -53.8853         47.1048       -0.0121681         147.541
0.554                   -0.87283        -149.158         -53.7577         44.6843         -53.7576         44.6787       -0.0122986          147.47
0.555                  -0.895601        -149.676         -53.6333         42.2577         -53.6332         42.2521       -0.0124304           147.4
0.556                  -0.918367        -150.194         -53.5122          39.832         -53.5121         39.8265       -0.0125634          147.33
0.557                  -0.941106        -150.714         -53.3943         37.4083         -53.3943          37.403       -0.0126976         147.259
0.558                  -0.963801        -151.235         -53.2797         34.9881         -53.2796         34.9829       -0.0128329         147.188
0.559                  -0.986434        -151.757         -53.1681         32.5724         -53.1681         32.5675       -0.0129693         147.118
0.56                    -1.00899        -152.281         -53.0596         30.1624         -53.0595         30.1577       -0.0131068         147.047
0.561                   -1.03146        -152.807          -52.954         27.7592          -52.954         27.7549       -0.0132453         146.976
0.562                   -1.05382        -153.336         -52.8513         25.3639         -52.8512         25.3598       -0.0133848         146.905
0.563                   -1.07608        -153.866         -52.7512         22.9773         -52.7512         22.9736       -0.0135253         146.833
0.564                   -1.09824        -154.399         -52.6538         20.6004         -52.6537          20.597       -0.0136668         146.762
0.565                   -1.12028        -154.936         -52.5588         18.2339         -52.5587         18.2309       -0.0138092         146.691
0.566                   -1.14221        -155.476         -52.4661         15.8786          -52.466          15.876       -0.0139526         146.619
0.567                   -1.16405        -156.019         -52.3755         13.5351         -52.3754         13.5328       -0.0140968         146.547
0.568                   -1.18579        -156.566         -52.2869         11.2039         -52.2868          11.202        -0.014242         146.475
0.569                   -1.20746        -157.118         -52.2002         8.88549         -52.2001         8.88391       -0.0143881         146.403
0.57                    -1.22908        -157.674         -52.1152         6.58021         -52.1151         6.57896       -0.0145351         146.331
0.571                   -1.25066        -158.235         -52.0317         4.28834         -52.0316         4.28743       -0.0146829         146.259
0.572                   -1.27224        -158.801         -51.9496         2.01009         -51.9494          2.0095       -0.0148317         146.186
0.573                   -1.29384        -159.373         -51.8687       -0.254417         -51.8685       -0.254717       -0.0149814         146.114
0.574                    -1.3155        -159.951         -51.7889        -2.50514         -51.7886        -2.50517        -0.015132         146.041
0.575                   -1.33725        -160.534           -51.71        -4.74212         -51.7097        -4.74188       -0.0152835         145.968
0.576                   -1.35915        -161.124         -51.6318        -6.96544         -51.6315        -6.96497       -0.0154359         145.895
0.577                   -1.38123        -161.721         -51.5542        -9.17526         -51.5539        -9.17458       -0.0155894         145.822
0.578                   -1.40355        -162.324         -51.4772        -11.3718         -51.4768        -11.3709       -0.0157438         145.749
0.579                   -1.42615        -162.934         -51.4005        -13.5554         -51.4001        -13.5543       -0.0158991         145.675
0.58                     -1.4491        -163.552          -51.324        -15.7263         -51.3236        -15.7251       -0.0160556         145.602
0.581                   -1.47245        -164.177         -51.2476        -17.8849         -51.2472        -17.8836        -0.016213         145.528
0.582                   -1.49626        -164.809         -51.1712        -20.0316         -51.1708        -20.0302       -0.0163716         145.454
0.583                    -1.5206        -165.449         -51.0948        -22.1669         -51.0943        -22.1654       -0.0165313          145.38
0.584                   -1.54552        -166.097         -51.0181        -24.2912         -51.0176        -24.2897       -0.0166922         145.306
0.585                    -1.5711        -166.753         -50.9411        -26.4052         -50.9406        -26.4036       -0.0168543         145.232
0.586                   -1.59741        -167.416         -50.8637        -28.5092         -50.8632        -28.5076       -0.0170176         145.157
0.587                   -1.62451        -168.088         -50.7859        -30.6039         -50.7854        -30.6023       -0.0171822         145.082
0.588                   -1.65247        -168.767         -50.7076        -32.6898         -50.7071        -32.6882       -0.0173482         145.007
0.589                   -1.68136        -169.454         -50.6287        -34.7676         -50.6282         -34.766       -0.0175156         144.932
0.59                    -1.71125        -170.148         -50.5491        -36.8378         -50.5486        -36.8362       -0.0176845         144.857
0.591                   -1.74221         -170.85         -50.4689         -38.901         -50.4684        -38.8995       -0.0178549         144.782
0.592                    -1.7743         -171.56          -50.388        -40.9578         -50.3875        -40.9564       -0.0180269         144.706
0.593                    -1.8076        -172.276         -50.3063        -43.0089         -50.3058        -43.0075       -0.0182005         144.631
0.594                   -1.84217            -173         -50.2238        -45.0549         -50.2234        -45.0535       -0.0183758         144.555
0.595                   -1.87808        -173.731         -50.1405        -47.0963         -50.1401         -47.095       -0.0185529         144.479
0.596                   -1.91539        -174.468         -50.0564        -49.1337         -50.0561        -49.1325       -0.0187318         144.402
0.597                   -1.95415        -175.212         -49.9716        -51.1678         -49.9712        -51.1666       -0.0189127         144.326
0.598                   -1.99443        -175.962         -49.8858         -53.199         -49.8855        -53.1979       -0.0190956         144.249
0.599                   -2.03629        -176.717         -49.7993         -55.228         -49.7991         -55.227       -0.0192805         144.172
0.6                     -2.07978        -177.478          -49.712        -57.2554         -49.7118        -57.2543       -0.0194675         144.095
0.601                   -2.12494        -178.244         -49.6239        -59.2815         -49.6237        -59.2805       -0.0196568         144.018
0.602                   -2.17184        -179.014         -49.5351         -61.307         -49.5349         -61.306       -0.0198483         143.941
0.603                    -2.2205        -179.789         -49.4455        -63.3323         -49.4454        -63.3313       -0.0200423         143.863
0.604                   -2.27099         179.433         -49.3552        -65.3578         -49.3551        -65.3569       -0.0202386         143.785
0.605                   -2.32333         178.651         -49.2642        -67.3841         -49.2642        -67.3832       -0.0204375         143.707
0.606                   -2.37757         177.866         -49.1726        -69.4115         -49.1726        -69.4106        -0.020639         143.629
0.607                   -2.43373         177.078         -49.0805        -71.4404         -49.0805        -71.4395       -0.0208432          143.55
0.608                   -2.49185         176.288         -48.9877        -73.4712         -48.9878        -73.4703       -0.0210502         143.472
0.609                   -2.55195         175.497         -48.8945        -75.5042         -48.8946        -75.5032         -0.02126         143.393
0.61                    -2.61406         174.705         -48.8009        -77.5396          -48.801        -77.5386       -0.0214728         143.314
0.611                   -2.67819         173.912         -48.7068        -79.5779          -48.707        -79.5768       -0.0216886         143.235
0.612                   -2.74437         173.119         -48.6124        -81.6191         -48.6126         -81.618       -0.0219074         143.155
0.613                    -2.8126         172.326         -48.5178        -83.6635          -48.518        -83.6624       -0.0221295         143.075
0.614                   -2.88289         171.534         -48.4229        -85.7113         -48.4232        -85.7101       -0.0223548         142.995
0.615                   -2.95525         170.744         -48.3279        -87.7626         -48.3282        -87.7614       -0.0225835         142.915
0.616                   -3.02968         169.956         -48.2328        -89.8175         -48.2331        -89.8162       -0.0228157         142.835
0.617                   -3.10618          169.17         -48.1377        -91.8761         -48.1379        -91.8748       -0.0230513         142.754
0.618                   -3.18474         168.387         -48.0425        -93.9383         -48.0428         -93.937       -0.0232905         142.673
0.619                   -3.26535         167.608         -47.9475        -96.0043         -47.9478         -96.003       -0.0235334         142.592
0.62                    -3.34799         166.833         -47.8527         -98.074          -47.853        -98.0726       -0.0237801         142.511
0.621                   -3.43265         166.063          -47.758        -100.147         -47.7583        -100.146       -0.0240307         142.429
0.622                   -3.51929         165.298         -47.6636        -102.224         -47.6639        -102.223       -0.0242851         142.347
0.623                    -3.6079          164.54         -47.5696        -104.304         -47.5699        -104.303       -0.0245436         142.265
0.624                   -3.69842         163.787         -47.4759        -106.388         -47.4762        -106.386       -0.0248061         142.182
0.625                   -3.79083         163.042         -47.3827        -108.474          -47.383        -108.473       -0.0250729           142.1
0.626                   -3.88507         162.304         -47.2899        -110.564         -47.2902        -110.562       -0.0253439         142.017
0.627                   -3.98109         161.574         -47.1977        -112.656         -47.1979        -112.654       -0.0256192         141.934
0.628                   -4.07884         160.853          -47.106         -114.75         -47.1063        -114.749       -0.0258989          141.85
0.629                   -4.17823         160.141         -47.0149        -116.846         -47.0152        -116.845       -0.0261832         141.767
0.63                    -4.27921         159.438         -46.9245        -118.944         -46.9247        -118.943        -0.026472         141.683
0.631                   -4.38169         158.746         -46.8348        -121.044          -46.835        -121.043       -0.0267655         141.598
0.632                   -4.48557         158.064         -46.7457        -123.145         -46.7459        -123.144       -0.0270637         141.514
0.633                   -4.59077         157.393         -46.6574        -125.246         -46.6576        -125.245       -0.0273668         141.429
0.634                   -4.69718         156.734         -46.5698        -127.348         -46.5699        -127.347       -0.0276747         141.344
0.635                   -4.80468         156.087          -46.483         -129.45         -46.4831         -129.45       -0.0279877         141.259
0.636                   -4.91316         155.451         -46.3969        -131.552          -46.397        -131.552       -0.0283058         141.173
0.637                   -5.02248         154.828         -46.3116        -133.653         -46.3116        -133.653        -0.028629         141.087
0.638                   -5.13253         154.216          -46.227        -135.753         -46.2271        -135.753       -0.0289574         141.001
0.639                   -5.24315         153.618         -46.1432        -137.852         -46.1432        -137.852       -0.0292912         140.914
0.64                    -5.35421         153.031         -46.0601        -139.948         -46.0601        -139.949       -0.0296304         140.827
0.641                   -5.46556         152.457         -45.9778        -142.043         -45.9778        -142.044       -0.0299751          140.74
0.642                   -5.57705         151.895         -45.8962        -144.136         -45.8962        -144.137       -0.0303254         140.652
0.643                   -5.68854         151.344         -45.8153        -146.225         -45.8152        -146.227       -0.0306814         140.565
0.644                   -5.79988         150.805          -45.735        -148.312         -45.7349        -148.313       -0.0310432         140.476
0.645                   -5.91093         150.276         -45.6554        -150.395         -45.6553        -150.397       -0.0314109         140.388
0.646                   -6.02157         149.757         -45.5763        -152.475         -45.5763        -152.477       -0.0317845         140.299
0.647                   -6.13166         149.247         -45.4979        -154.551         -45.4978        -154.553       -0.0321642          140.21
0.648                    -6.2411         148.745         -45.4199        -156.622         -45.4199        -156.624       -0.0325501          140.12
0.649                    -6.3498         148.251         -45.3425        -158.689         -45.3424        -158.692       -0.0329422          140.03
0.65                    -6.45768         147.762         -45.2655        -160.752         -45.2654        -160.755       -0.0333407          139.94
0.651                   -6.56467         147.277         -45.1889         -162.81         -45.1888        -162.813       -0.0337457          139.85
0.652                   -6.67076         146.797         -45.1126        -164.863         -45.1125        -164.866       -0.0341573         139.759
0.653                   -6.77592         146.318         -45.0366        -166.911         -45.0366        -166.914       -0.0345756         139.667
0.654                   -6.88018          145.84         -44.9609        -168.954         -44.9609        -168.957       -0.0350007         139.576
0.655                   -6.98357         145.362         -44.8854        -170.992         -44.8854        -170.995       -0.0354328         139.484
0.656                   -7.08615         144.881         -44.8101        -173.025           -44.81        -173.028       -0.0358719         139.391
0.657                   -7.18801         144.397         -44.7348        -175.052         -44.7348        -175.055       -0.0363181         139.298
0.658                   -7.28928         143.909         -44.6597        -177.074         -44.6596        -177.078       -0.0367717         139.205
0.659                   -7.39008         143.416         -44.5845        -179.091         -44.5845        -179.095       -0.0372327         139.111
0.66                    -7.49057         142.915         -44.5093         178.897         -44.5092         178.894       -0.0377013         139.017
0.661                   -7.59092         142.407         -44.4339          176.89         -44.4339         176.887       -0.0381777         138.923
0.662                   -7.69133         141.891         -44.3585         174.889         -44.3585         174.886       -0.0386618         138.828
0.663                     -7.792         141.366         -44.2828         172.892         -44.2828         172.889        -0.039154         138.733
0.664                   -7.89313         140.831          -44.207           170.9          -44.207         170.898       -0.0396543         138.637
0.665                   -7.99494         140.286         -44.1308         168.913         -44.1308         168.911        -0.040163         138.541
0.666                   -8.09767         139.731         -44.0544         166.931         -44.0544         166.928       -0.0406802         138.444
0.667                   -8.20154         139.166         -43.9776         164.953         -43.9776          164.95       -0.0412059         138.347
0.668                   -8.30676          138.59         -43.9004         162.979         -43.9004         162.977       -0.0417406         138.249
0.669                   -8.41358         138.004         -43.8228         161.009         -43.8228         161.007       -0.0422842         138.151
0.67                    -8.52221         137.408         -43.7448         159.042         -43.7448         159.041        -0.042837         138.053
0.671                   -8.63286         136.803         -43.6662          157.08         -43.6662         157.078       -0.0433993         137.954
0.672                   -8.74576         136.188         -43.5872          155.12         -43.5872         155.119       -0.0439711         137.854
0.673                   -8.86111         135.565         -43.5077         153.164         -43.5076         153.163       -0.0445527         137.754
0.674                   -8.97912         134.934         -43.4275          151.21         -43.4275          151.21       -0.0451443         137.654
0.675                   -9.09999         134.295         -43.3469          149.26         -43.3468         149.259       -0.0457461         137.553
0.676                    -9.2239         133.649         -43.2656         147.311         -43.2655         147.311       -0.0463584         137.451
0.677                   -9.35107         132.998         -43.1837         145.364         -43.1836         145.364       -0.0469814         137.349
0.678                   -9.48167         132.341         -43.1013         143.419         -43.1011          143.42       -0.0476154         137.247
0.679                   -9.61589         131.681         -43.0182         141.476          -43.018         141.477       -0.0482605         137.143
0.68                    -9.75393         131.017         -42.9345         139.534         -42.9343         139.535       -0.0489171          137.04
0.681                   -9.89598         130.351         -42.8501         137.593         -42.8499         137.594       -0.0495855         136.935
0.682                   -10.0422         129.683         -42.7652         135.652         -42.7649         135.654       -0.0502658         136.831
0.683                   -10.1929         129.016         -42.6796         133.712         -42.6794         133.714       -0.0509585         136.725
0.684                   -10.3481         128.349         -42.5934         131.772         -42.5931         131.774       -0.0516638         136.619
0.685                   -10.5081         127.685         -42.5067         129.833         -42.5063         129.835        -0.052382         136.512
0.686                   -10.6732         127.024         -42.4193         127.892         -42.4189         127.895       -0.0531135         136.405
0.687                   -10.8434         126.368         -42.3314         125.952          -42.331         125.954       -0.0538586         136.297
0.688                   -11.0192         125.719         -42.2429          124.01         -42.2424         124.013       -0.0546176         136.189
0.689                   -11.2007         125.077         -42.1538         122.068         -42.1534          122.07        -0.055391         136.079
0.69                    -11.3881         124.446         -42.0643         120.124         -42.0638         120.127        -0.056179         135.969
0.691                   -11.5818         123.828         -41.9743         118.179         -41.9737         118.182       -0.0569822         135.859
0.692                    -11.782         123.223         -41.8838         116.233         -41.8832         116.235       -0.0578008         135.748
0.693                    -11.989         122.635         -41.7928         114.284         -41.7923         114.287       -0.0586353         135.636
0.694                   -12.2032         122.067         -41.7015         112.334         -41.7009         112.337       -0.0594862         135.523
0.695                   -12.4247         121.522         -41.6097         110.382         -41.6091         110.385       -0.0603539          135.41
0.696                   -12.6541         121.003         -41.5177         108.428         -41.5171         108.431       -0.0612389         135.295
0.697                   -12.8915         120.515         -41.4253         106.472         -41.4247         106.475       -0.0621416          135.18