! TOUCHSTONE file generated by CST MICROWAVE STUDIO
! Date and time: Sat Oct 24 11:17:23 2020
! Project name: Scenario_1_Circular_Tissue_in_Line.cst
! Parameters = {L_HA=400; MT=2.54; Rad_Dielectric=30; Rad_Lower=7.3; Rad_Upper=30; a_HA=580; a_WG=246; b_HA=500; b_WG=121; c_HA=0; c_WG=187; d_feed=85; dx1=831.16; h_feed=15; h_lower=18; h_upper=40}
! Header version: 2018
! Port assignment regex: !\s*Touchstone port\s*([0-9]+)\s*=\s*(CST MWS port|CST DS port)\s*([0-9]+|Zmin|Zmax)\s*\(\"(.*)\"\)(\s*mode\s*([0-9]+))?.*
! Touchstone port assignment:
! Touchstone port 1 = CST MWS port 1 ("")
! Touchstone port 2 = CST MWS port 2 ("")
# GHz S DB R 50
0.5                    -0.134715        -122.406         -62.7411         119.027         -62.7411         119.032      -0.00742596         151.115
0.501                  -0.143533        -122.838         -62.5274         117.754         -62.5283         117.764      -0.00749972         151.049
0.502                  -0.152432        -123.272         -62.3102          116.44         -62.3119         116.456      -0.00757418         150.984
0.503                  -0.161414        -123.707         -62.0897         115.084         -62.0922         115.106      -0.00764934         150.919
0.504                  -0.170479        -124.144         -61.8659         113.684         -61.8693         113.712      -0.00772519         150.853
0.505                  -0.179627        -124.582         -61.6392         112.238         -61.6432         112.273      -0.00780174         150.787
0.506                  -0.188859        -125.022         -61.4097         110.745         -61.4143         110.786        -0.007879         150.722
0.507                  -0.198175        -125.463         -61.1775         109.202         -61.1828         109.249      -0.00795696         150.656
0.508                  -0.207576        -125.905          -60.943         107.608         -60.9488         107.662      -0.00803563          150.59
0.509                  -0.217063        -126.349         -60.7064         105.961         -60.7126         106.022      -0.00811501         150.524
0.51                   -0.226635        -126.795         -60.4681         104.259         -60.4747         104.327      -0.00819511         150.458
0.511                  -0.236295        -127.242         -60.2283         102.502         -60.2352         102.577      -0.00827592         150.392
0.512                  -0.246043        -127.692         -59.9876         100.686         -59.9947         100.769      -0.00835746         150.326
0.513                   -0.25588        -128.142         -59.7463         98.8125         -59.7534         98.9023      -0.00843971          150.26
0.514                  -0.265807        -128.595         -59.5048         96.8785          -59.512         96.9755      -0.00852269         150.194
0.515                  -0.275825        -129.049         -59.2637         94.8837         -59.2708         94.9877       -0.0086064         150.127
0.516                  -0.285937        -129.505         -59.0234         92.8273         -59.0304         92.9381      -0.00869084         150.061
0.517                  -0.296142        -129.963         -58.7847         90.7089         -58.7913         90.8264      -0.00877601         149.994
0.518                  -0.306443        -130.422         -58.5479         88.5286         -58.5542         88.6525      -0.00886192         149.928
0.519                  -0.316842        -130.884         -58.3138         86.2867         -58.3197         86.4165      -0.00894858         149.861
0.52                    -0.32734        -131.348          -58.083         83.9838         -58.0883         84.1192      -0.00903597         149.794
0.521                  -0.337939        -131.813         -57.8561         81.6212         -57.8608         81.7616      -0.00912411         149.727
0.522                  -0.348641        -132.281         -57.6338         79.2006         -57.6377         79.3454        -0.009213          149.66
0.523                  -0.359449         -132.75         -57.4167         76.7241         -57.4198         76.8727      -0.00930264         149.593
0.524                  -0.370365        -133.222         -57.2055         74.1943         -57.2077          74.346      -0.00939304         149.526
0.525                  -0.381392        -133.696         -57.0006         71.6144         -57.0019         71.7685      -0.00948419         149.459
0.526                  -0.392532        -134.172         -56.8028         68.9882         -56.8031         69.1439      -0.00957611         149.392
0.527                  -0.403788        -134.651         -56.6124         66.3196         -56.6117         66.4761      -0.00966879         149.324
0.528                  -0.415163        -135.131         -56.4299         63.6133         -56.4283         63.7697      -0.00976224         149.257
0.529                  -0.426662        -135.614         -56.2557         60.8743         -56.2531         61.0297      -0.00985646         149.189
0.53                   -0.438286          -136.1         -56.0901         58.1076         -56.0865         58.2613      -0.00995145         149.122
0.531                  -0.450041        -136.587         -55.9333         55.3188         -55.9287           55.47       -0.0100472         149.054
0.532                   -0.46193        -137.078         -55.7852         52.5133         -55.7797         52.6612       -0.0101438         148.986
0.533                  -0.473958         -137.57         -55.6461         49.6969         -55.6397         49.8408       -0.0102411         148.918
0.534                  -0.486129        -138.066         -55.5157          46.875         -55.5086         47.0142       -0.0103392          148.85
0.535                  -0.498448        -138.564         -55.3939         44.0529          -55.386          44.187       -0.0104381         148.782
0.536                   -0.51092        -139.065         -55.2804         41.2359         -55.2719         41.3643       -0.0105378         148.714
0.537                  -0.523551        -139.568         -55.1748         38.4287         -55.1658          38.551       -0.0106383         148.645
0.538                  -0.536346        -140.074         -55.0768         35.6357         -55.0674         35.7517       -0.0107396         148.577
0.539                  -0.549312        -140.584         -54.9859          32.861         -54.9761         32.9704       -0.0108417         148.508
0.54                   -0.562455        -141.096         -54.9014          30.108         -54.8914         30.2107       -0.0109446          148.44
0.541                  -0.575783        -141.611          -54.823         27.3798         -54.8128         27.4758       -0.0110483         148.371
0.542                  -0.589302        -142.129           -54.75          24.679         -54.7397         24.7682       -0.0111529         148.302
0.543                   -0.60302         -142.65         -54.6817         22.0075         -54.6715         22.0901       -0.0112582         148.233
0.544                  -0.616945        -143.174         -54.6176         19.3669         -54.6075          19.443       -0.0113644         148.164
0.545                  -0.631086        -143.702         -54.5572         16.7584         -54.5472         16.8283       -0.0114714         148.095
0.546                  -0.645453        -144.232         -54.4997         14.1827           -54.49         14.2465       -0.0115792         148.026
0.547                  -0.660055        -144.767         -54.4448           11.64         -54.4353          11.698       -0.0116878         147.957
0.548                  -0.674902        -145.304         -54.3917         9.13034         -54.3825         9.18289       -0.0117973         147.887
0.549                  -0.690005        -145.845         -54.3401         6.65336         -54.3313         6.70074       -0.0119076         147.818
0.55                   -0.705376         -146.39         -54.2894         4.20845          -54.281           4.251       -0.0120188         147.748
0.551                  -0.721026        -146.938         -54.2393         1.79479         -54.2313         1.83283       -0.0121308         147.678
0.552                  -0.736968         -147.49         -54.1892       -0.588659         -54.1817       -0.554803       -0.0122437         147.608
0.553                  -0.753216        -148.045         -54.1389        -2.94308         -54.1318        -2.91308       -0.0123574         147.538
0.554                  -0.769784        -148.604          -54.088        -5.26977         -54.0814        -5.24331        -0.012472         147.468
0.555                  -0.786686        -149.167         -54.0362        -7.57015         -54.0301        -7.54692       -0.0125875         147.398
0.556                  -0.803938        -149.734         -53.9833        -9.84569         -53.9776        -9.82539       -0.0127038         147.327
0.557                  -0.821557        -150.305          -53.929        -12.0979         -53.9237        -12.0803        -0.012821         147.257
0.558                  -0.839559         -150.88         -53.8731        -14.3284         -53.8683        -14.3131       -0.0129392         147.186
0.559                  -0.857964        -151.459         -53.8154        -16.5387          -53.811        -16.5255       -0.0130582         147.115
0.56                    -0.87679        -152.043         -53.7558        -18.7304         -53.7519        -18.7191       -0.0131781         147.045
0.561                  -0.896057         -152.63         -53.6941         -20.905         -53.6906        -20.8955        -0.013299         146.974
0.562                  -0.915785        -153.222         -53.6303        -23.0642         -53.6272        -23.0561       -0.0134208         146.902
0.563                  -0.935998        -153.817         -53.5643        -25.2094         -53.5616        -25.2026       -0.0135435         146.831
0.564                  -0.956717        -154.418          -53.496        -27.3421         -53.4937        -27.3364       -0.0136672          146.76
0.565                  -0.977967        -155.022         -53.4254        -29.4637         -53.4234        -29.4589       -0.0137919         146.688
0.566                  -0.999773        -155.631         -53.3524        -31.5757         -53.3508        -31.5717       -0.0139176         146.617
0.567                   -1.02216        -156.244         -53.2771        -33.6794         -53.2757        -33.6761       -0.0140443         146.545
0.568                   -1.04516        -156.862         -53.1994         -35.776         -53.1983        -35.7733        -0.014172         146.473
0.569                   -1.06879        -157.484         -53.1193         -37.867         -53.1186        -37.8647       -0.0143008         146.401
0.57                    -1.09309        -158.111          -53.037        -39.9533         -53.0365        -39.9514       -0.0144306         146.329
0.571                   -1.11808        -158.742         -52.9523        -42.0363          -52.952        -42.0346       -0.0145616         146.257
0.572                    -1.1438        -159.377         -52.8655        -44.1169         -52.8654        -44.1155       -0.0146937         146.184
0.573                   -1.17029        -160.017         -52.7764        -46.1963         -52.7765         -46.195        -0.014827         146.111
0.574                   -1.19756        -160.661         -52.6853        -48.2754         -52.6856        -48.2742       -0.0149615         146.039
0.575                   -1.22566         -161.31         -52.5921        -50.3551         -52.5925        -50.3539       -0.0150973         145.966
0.576                   -1.25462        -161.962         -52.4969        -52.4363         -52.4976        -52.4351       -0.0152343         145.893
0.577                   -1.28448        -162.619         -52.3999        -54.5199         -52.4007        -54.5187       -0.0153727          145.82
0.578                   -1.31527         -163.28         -52.3011        -56.6066          -52.302        -56.6053       -0.0155125         145.746
0.579                   -1.34703        -163.945         -52.2007        -58.6971         -52.2016        -58.6957       -0.0156537         145.673
0.58                    -1.37979        -164.614         -52.0986        -60.7921         -52.0997        -60.7906       -0.0157964         145.599
0.581                    -1.4136        -165.287         -51.9951        -62.8922         -51.9962        -62.8906       -0.0159406         145.525
0.582                   -1.44848        -165.963         -51.8902        -64.9979         -51.8914        -64.9962       -0.0160865         145.451
0.583                   -1.48448        -166.642         -51.7841        -67.1099         -51.7853         -67.108        -0.016234         145.377
0.584                   -1.52163        -167.325         -51.6768        -69.2284          -51.678        -69.2264       -0.0163834         145.303
0.585                   -1.55996         -168.01         -51.5685         -71.354         -51.5697        -71.3519       -0.0165345         145.228
0.586                    -1.5995        -168.698         -51.4593        -73.4869         -51.4605        -73.4847       -0.0166876         145.154
0.587                   -1.64029        -169.389         -51.3492        -75.6275         -51.3505        -75.6251       -0.0168426         145.079
0.588                   -1.68236        -170.082         -51.2386         -77.776         -51.2398        -77.7735       -0.0169997         145.004
0.589                   -1.72573        -170.776         -51.1273        -79.9326         -51.1286        -79.9301       -0.0171589         144.929
0.59                    -1.77043        -171.472         -51.0157        -82.0974         -51.0169        -82.0948       -0.0173204         144.854
0.591                   -1.81647        -172.169         -50.9037        -84.2706         -50.9049        -84.2679       -0.0174843         144.778
0.592                   -1.86388        -172.867         -50.7915        -86.4521         -50.7927        -86.4495       -0.0176505         144.702
0.593                   -1.91265        -173.565         -50.6793        -88.6421         -50.6804        -88.6393       -0.0178192         144.627
0.594                   -1.96281        -174.263         -50.5671        -90.8403         -50.5682        -90.8375       -0.0179905         144.551
0.595                   -2.01435         -174.96          -50.455        -93.0467         -50.4561         -93.044       -0.0181645         144.474
0.596                   -2.06726        -175.656         -50.3432        -95.2612         -50.3443        -95.2585       -0.0183412         144.398
0.597                   -2.12154        -176.351         -50.2318        -97.4835         -50.2328        -97.4808       -0.0185208         144.321
0.598                   -2.17717        -177.044         -50.1209        -99.7135         -50.1218        -99.7108       -0.0187033         144.245
0.599                   -2.23412        -177.734         -50.0105        -101.951         -50.0114        -101.948       -0.0188888         144.168
0.6                     -2.29236        -178.422         -49.9008        -104.195         -49.9016        -104.193       -0.0190773         144.091
0.601                   -2.35184        -179.106         -49.7918        -106.446         -49.7926        -106.444       -0.0192689         144.013
0.602                   -2.41253        -179.787         -49.6837        -108.703         -49.6844        -108.701       -0.0194638         143.936
0.603                   -2.47437         179.537         -49.5765        -110.966         -49.5771        -110.964       -0.0196619         143.858
0.604                   -2.53728         178.865         -49.4702        -113.235         -49.4709        -113.233       -0.0198633          143.78
0.605                   -2.60121         178.198          -49.365        -115.508         -49.3656        -115.506       -0.0200681         143.702
0.606                   -2.66608         177.536          -49.261        -117.786         -49.2615        -117.784       -0.0202763         143.624
0.607                    -2.7318         176.879          -49.158        -120.068         -49.1585        -120.066       -0.0204879         143.545
0.608                   -2.79829         176.227         -49.0563        -122.353         -49.0568        -122.351        -0.020703         143.466
0.609                   -2.86545         175.582         -48.9558         -124.64         -48.9562        -124.639       -0.0209216         143.387
0.61                    -2.93318         174.942         -48.8566        -126.931          -48.857        -126.929       -0.0211438         143.308
0.611                   -3.00139         174.307         -48.7587        -129.222          -48.759        -129.221       -0.0213695         143.229
0.612                   -3.06998         173.679         -48.6621        -131.516         -48.6624        -131.514       -0.0215988         143.149
0.613                   -3.13885         173.055         -48.5668        -133.809         -48.5671        -133.808       -0.0218318         143.069
0.614                    -3.2079         172.437         -48.4729        -136.103         -48.4731        -136.102       -0.0220683         142.989
0.615                   -3.27704         171.823         -48.3802        -138.396         -48.3804        -138.395       -0.0223086         142.909
0.616                   -3.34617         171.214         -48.2889        -140.688          -48.289        -140.688       -0.0225525         142.829
0.617                   -3.41522         170.608         -48.1988        -142.979          -48.199        -142.979          -0.0228         142.748
0.618                    -3.4841         170.006           -48.11        -145.268         -48.1102        -145.268       -0.0230513         142.667
0.619                   -3.55275         169.407         -48.0225        -147.554         -48.0226        -147.554       -0.0233063         142.586
0.62                    -3.62111          168.81         -47.9362        -149.838         -47.9363        -149.838       -0.0235651         142.504
0.621                   -3.68913         168.214          -47.851        -152.118         -47.8511        -152.118       -0.0238276         142.423
0.622                   -3.75677         167.618          -47.767        -154.395         -47.7671        -154.395       -0.0240939         142.341
0.623                   -3.82402         167.022         -47.6841        -156.667         -47.6841        -156.667       -0.0243641         142.259
0.624                   -3.89086         166.425         -47.6022        -158.935         -47.6022        -158.935        -0.024638         142.176
0.625                   -3.95728         165.827         -47.5213        -161.199         -47.5213        -161.199       -0.0249159         142.094
0.626                   -4.02332         165.225         -47.4413        -163.458         -47.4413        -163.458       -0.0251976         142.011
0.627                   -4.08899          164.62         -47.3622        -165.711         -47.3622        -165.711       -0.0254833         141.928
0.628                   -4.15433          164.01         -47.2839        -167.959         -47.2839         -167.96        -0.025773         141.844
0.629                    -4.2194         163.395         -47.2064        -170.202         -47.2064        -170.202       -0.0260668         141.761
0.63                    -4.28426         162.774         -47.1297        -172.439         -47.1296        -172.439       -0.0263646         141.677
0.631                   -4.34899         162.146         -47.0535        -174.671         -47.0535        -174.671       -0.0266665         141.593
0.632                   -4.41367          161.51          -46.978        -176.896         -46.9779        -176.896       -0.0269726         141.508
0.633                    -4.4784         160.867          -46.903        -179.116         -46.9029        -179.116        -0.027283         141.423
0.634                   -4.54329         160.214         -46.8284          178.67         -46.8284          178.67       -0.0275977         141.338
0.635                   -4.60845         159.552         -46.7543         176.462         -46.7543         176.462       -0.0279168         141.253
0.636                     -4.674          158.88         -46.6806         174.259         -46.6805          174.26       -0.0282403         141.167
0.637                   -4.74007         158.197         -46.6072         172.063         -46.6071         172.063       -0.0285684         141.081
0.638                   -4.80679         157.504          -46.534         169.872          -46.534         169.872       -0.0289011         140.995
0.639                   -4.87431         156.799         -46.4611         167.686          -46.461         167.687       -0.0292384         140.909
0.64                    -4.94277         156.083         -46.3884         165.506         -46.3883         165.507       -0.0295806         140.822
0.641                   -5.01232         155.355         -46.3157         163.331         -46.3157         163.332       -0.0299276         140.735
0.642                   -5.08311         154.615         -46.2432         161.162         -46.2432         161.162       -0.0302796         140.647
0.643                   -5.15529         153.863         -46.1708         158.997         -46.1707         158.997       -0.0306367         140.559
0.644                   -5.22904         153.099         -46.0983         156.837         -46.0983         156.837       -0.0309989         140.471
0.645                   -5.30451         152.323         -46.0259         154.681         -46.0258         154.682       -0.0313664         140.383
0.646                   -5.38186         151.534         -45.9534          152.53         -45.9533         152.531       -0.0317394         140.294
0.647                   -5.46126         150.734         -45.8808         150.383         -45.8808         150.384       -0.0321178         140.205
0.648                   -5.54288         149.922         -45.8082          148.24         -45.8081         148.241       -0.0325019         140.115
0.649                    -5.6269         149.098         -45.7355         146.101         -45.7354         146.102       -0.0328917         140.026
0.65                    -5.71347         148.263         -45.6626         143.965         -45.6626         143.966       -0.0332874         139.935
0.651                   -5.80279         147.417         -45.5897         141.832         -45.5896         141.833       -0.0336891         139.845
0.652                   -5.89501          146.56         -45.5166         139.703         -45.5165         139.704        -0.034097         139.754
0.653                   -5.99032         145.693         -45.4433         137.576         -45.4432         137.577       -0.0345112         139.663
0.654                    -6.0889         144.817         -45.3699         135.452         -45.3698         135.453       -0.0349318         139.571
0.655                   -6.19092         143.931         -45.2963         133.331         -45.2963         133.332       -0.0353591         139.479
0.656                   -6.29658         143.037         -45.2226         131.211         -45.2226         131.212       -0.0357931         139.387
0.657                   -6.40604         142.136         -45.1488         129.094         -45.1487         129.095        -0.036234         139.294
0.658                    -6.5195         141.228         -45.0748         126.979         -45.0747          126.98        -0.036682         139.201
0.659                   -6.63713         140.313         -45.0007         124.865         -45.0006         124.866       -0.0371372         139.107
0.66                    -6.75913         139.394         -44.9264         122.753         -44.9264         122.754       -0.0375998         139.013
0.661                   -6.88568         138.471         -44.8521         120.643         -44.8521         120.644       -0.0380701         138.919
0.662                   -7.01697         137.545         -44.7777         118.533         -44.7776         118.535       -0.0385482         138.824
0.663                   -7.15319         136.617         -44.7032         116.425         -44.7031         116.427       -0.0390342         138.728
0.664                   -7.29452         135.689         -44.6286         114.319         -44.6286          114.32       -0.0395284         138.633
0.665                   -7.44115         134.762          -44.554         112.213          -44.554         112.214        -0.040031         138.537
0.666                   -7.59327         133.837         -44.4794         110.108         -44.4794         110.109       -0.0405422          138.44
0.667                   -7.75105         132.918         -44.4048         108.004         -44.4048         108.005       -0.0410622         138.343
0.668                   -7.91469         132.004         -44.3302         105.901         -44.3302         105.903       -0.0415912         138.245
0.669                   -8.08435         131.098         -44.2556         103.799         -44.2556         103.801       -0.0421295         138.147
0.67                    -8.26022         130.203         -44.1811         101.698         -44.1811           101.7       -0.0426773         138.049
0.671                   -8.44246          129.32         -44.1067         99.5985         -44.1067         99.5996       -0.0432348          137.95
0.672                   -8.63122         128.452         -44.0324         97.4995         -44.0324         97.5007       -0.0438023          137.85
0.673                   -8.82666         127.602         -43.9583         95.4017         -43.9583         95.4028       -0.0443801          137.75
0.674                   -9.02891         126.772         -43.8842         93.3051         -43.8842         93.3062       -0.0449683          137.65
0.675                   -9.23811         125.965         -43.8104         91.2097         -43.8104         91.2108       -0.0455673         137.549
0.676                   -9.45435         125.185         -43.7367         89.1158         -43.7367         89.1169       -0.0461774         137.447
0.677                   -9.67772         124.435         -43.6632         87.0234         -43.6632         87.0245       -0.0467988         137.345
0.678                    -9.9083         123.719         -43.5899         84.9328         -43.5899         84.9338       -0.0474319         137.242
0.679                   -10.1461         123.041         -43.5168          82.844         -43.5168          82.845       -0.0480769         137.139
0.68                    -10.3911         122.405         -43.4439         80.7572          -43.444         80.7582       -0.0487341         137.035
0.681                   -10.6433         121.816         -43.3713         78.6727         -43.3714         78.6737        -0.049404         136.931
0.682                   -10.9026         121.278          -43.299         76.5906          -43.299         76.5916       -0.0500868         136.826
0.683                   -11.1689         120.797         -43.2268         74.5111         -43.2269         74.5121       -0.0507828         136.721
0.684                   -11.4418         120.379         -43.1549         72.4345          -43.155         72.4355       -0.0514925         136.615
0.685                   -11.7212         120.028         -43.0833          70.361         -43.0833         70.3619       -0.0522162         136.508
0.686                   -12.0066         119.752         -43.0119         68.2908         -43.0119         68.2917       -0.0529542         136.401
0.687                   -12.2976         119.555         -42.9407         66.2242         -42.9407          66.225       -0.0537071         136.293
0.688                   -12.5935         119.446         -42.8697         64.1613         -42.8698         64.1621        -0.054475         136.184
0.689                   -12.8935         119.431         -42.7989         62.1024          -42.799         62.1032       -0.0552586         136.075
0.69                    -13.1968         119.515         -42.7283         60.0477         -42.7284         60.0485       -0.0560582         135.965
0.691                   -13.5022         119.706         -42.6579         57.9976         -42.6579         57.9984       -0.0568742         135.854
0.692                   -13.8085          120.01         -42.5875         55.9521         -42.5876         55.9529       -0.0577072         135.743
0.693                   -14.1141         120.433         -42.5173         53.9116         -42.5174         53.9123       -0.0585575         135.631
0.694                   -14.4174         120.979         -42.4472         51.8762         -42.4473         51.8769       -0.0594258         135.518
0.695                   -14.7164         121.653         -42.3771         49.8462         -42.3772         49.8469       -0.0603123         135.405
0.696                   -15.0089         122.456         -42.3071         47.8217         -42.3072         47.8223       -0.0612178          135.29
0.697                   -15.2926          123.39          -42.237         45.8029         -42.2371         45.8035       -0.0621427         135.176