! TOUCHSTONE file generated by CST MICROWAVE STUDIO
! Date and time: Sat Oct 24 11:18:23 2020
! Project name: Scenario_1_Circular_Tissue_in_Line.cst
! Parameters = {L_HA=400; MT=2.54; Rad_Dielectric=30; Rad_Lower=7.3; Rad_Upper=30; a_HA=580; a_WG=246; b_HA=500; b_WG=121; c_HA=0; c_WG=187; d_feed=85; dx1=969.72; h_feed=15; h_lower=18; h_upper=40}
! Header version: 2018
! Port assignment regex: !\s*Touchstone port\s*([0-9]+)\s*=\s*(CST MWS port|CST DS port)\s*([0-9]+|Zmin|Zmax)\s*\(\"(.*)\"\)(\s*mode\s*([0-9]+))?.*
! Touchstone port assignment:
! Touchstone port 1 = CST MWS port 1 ("")
! Touchstone port 2 = CST MWS port 2 ("")
# GHz S DB R 50
0.5                    -0.160856        -122.324         -62.5615         36.9417         -62.5615         36.9417      -0.00767546         151.127
0.501                  -0.163567        -122.762           -62.71          35.204         -62.7108          35.215      -0.00773246         151.062
0.502                   -0.16653        -123.202         -62.8585         33.4015         -62.8601         33.4236      -0.00779033         150.997
0.503                   -0.16975        -123.644         -63.0065         31.5312         -63.0091         31.5644      -0.00784908         150.931
0.504                  -0.173231        -124.089         -63.1536           29.59         -63.1572         29.6343      -0.00790871         150.866
0.505                   -0.17698        -124.536         -63.2991          27.575          -63.304         27.6303      -0.00796924           150.8
0.506                  -0.180999        -124.986         -63.4426         25.4833         -63.4488         25.5494      -0.00803067         150.735
0.507                  -0.185296        -125.437         -63.5832         23.3123         -63.5909          23.389        -0.008093         150.669
0.508                  -0.189875        -125.891         -63.7203         21.0594         -63.7295         21.1463      -0.00815624         150.603
0.509                   -0.19474        -126.348         -63.8528         18.7225         -63.8638         18.8192      -0.00822039         150.537
0.51                   -0.199899        -126.806           -63.98         16.2999         -63.9929         16.4058      -0.00828547         150.471
0.511                  -0.205355        -127.267         -64.1007         13.7904         -64.1156         13.9048      -0.00835147         150.405
0.512                  -0.211114        -127.731         -64.2138         11.1934         -64.2309         11.3155      -0.00841841         150.339
0.513                  -0.217182        -128.196         -64.3182         8.50938         -64.3376         8.63802      -0.00848629         150.273
0.514                  -0.223564        -128.664         -64.4126         5.73931         -64.4344         5.87337      -0.00855512         150.207
0.515                  -0.230265        -129.135         -64.4958         2.88547         -64.5201          3.0236       -0.0086249          150.14
0.516                  -0.237291        -129.607         -64.5664      -0.0488334         -64.5933        0.091904      -0.00869564         150.074
0.517                  -0.244649        -130.083         -64.6231        -3.05905         -64.6527        -2.91731      -0.00876736         150.007
0.518                  -0.252342         -130.56         -64.6648        -6.13938          -64.697        -5.99834      -0.00884005         149.941
0.519                  -0.260378         -131.04         -64.6903        -9.28278         -64.7252        -9.14422      -0.00891372         149.874
0.52                   -0.268762        -131.522         -64.6986         -12.481          -64.736        -12.3468      -0.00898838         149.807
0.521                  -0.277499        -132.006         -64.6888        -15.7248         -64.7287        -15.5966      -0.00906404          149.74
0.522                  -0.286596        -132.493         -64.6601         -19.004         -64.7025        -18.8835      -0.00914071         149.673
0.523                  -0.296058        -132.982         -64.6122        -22.3076         -64.6568        -22.1965       -0.0092184         149.606
0.524                  -0.305892        -133.474         -64.5449        -25.6243         -64.5914        -25.5241       -0.0092971         149.539
0.525                  -0.316103        -133.968          -64.458        -28.9428         -64.5063        -28.8547      -0.00937684         149.472
0.526                  -0.326697        -134.464         -64.3519        -32.2518         -64.4017        -32.1768      -0.00945762         149.405
0.527                  -0.337681        -134.962         -64.2271        -35.5406         -64.2782        -35.4794      -0.00953944         149.337
0.528                   -0.34906        -135.463         -64.0843         -38.799         -64.1363        -38.7522      -0.00962232          149.27
0.529                   -0.36084        -135.966         -63.9242        -42.0181         -63.9769        -41.9858      -0.00970627         149.202
0.53                   -0.373028        -136.471         -63.7481        -45.1898         -63.8012        -45.1721      -0.00979129         149.134
0.531                   -0.38563        -136.979          -63.557        -48.3074         -63.6102         -48.304       -0.0098774         149.067
0.532                  -0.398652        -137.489         -63.3521        -51.3653         -63.4052        -51.3758       -0.0099646         148.999
0.533                    -0.4121        -138.001         -63.1347        -54.3593         -63.1875         -54.383       -0.0100529         148.931
0.534                   -0.42598        -138.515         -62.9061        -57.2864         -62.9583        -57.3227       -0.0101423         148.863
0.535                  -0.440299        -139.032         -62.6676        -60.1447          -62.719        -60.1926       -0.0102329         148.795
0.536                  -0.455062        -139.551         -62.4202        -62.9333         -62.4708        -62.9919       -0.0103245         148.726
0.537                  -0.470277        -140.072         -62.1653        -65.6522         -62.2148        -65.7205       -0.0104174         148.658
0.538                  -0.485949        -140.595         -61.9039        -68.3021         -61.9522        -68.3791       -0.0105113          148.59
0.539                  -0.502085        -141.121         -61.6369        -70.8847          -61.684        -70.9694       -0.0106065         148.521
0.54                   -0.518691        -141.648         -61.3654        -73.4017         -61.4111        -73.4931       -0.0107028         148.452
0.541                  -0.535774        -142.178         -61.0901        -75.8557         -61.1344        -75.9528       -0.0108003         148.384
0.542                  -0.553339         -142.71         -60.8118        -78.2493         -60.8547        -78.3512        -0.010899         148.315
0.543                  -0.571393        -143.244         -60.5312        -80.5855         -60.5726        -80.6912       -0.0109989         148.246
0.544                  -0.589942        -143.781         -60.2488        -82.8674         -60.2888        -82.9762       -0.0111001         148.177
0.545                  -0.608993        -144.319         -59.9653        -85.0982         -60.0037        -85.2092       -0.0112025         148.107
0.546                  -0.628552         -144.86          -59.681        -87.2812         -59.7179        -87.3937       -0.0113061         148.038
0.547                  -0.648625        -145.402         -59.3963        -89.4197         -59.4318         -89.533        -0.011411         147.969
0.548                  -0.669219        -145.947         -59.1117        -91.5169         -59.1456        -91.6303       -0.0115171         147.899
0.549                   -0.69034        -146.494         -58.8273         -93.576         -58.8598         -93.689       -0.0116246          147.83
0.55                   -0.711994        -147.043         -58.5435        -95.6002         -58.5745        -95.7121       -0.0117333          147.76
0.551                  -0.734188        -147.593         -58.2605        -97.5925           -58.29        -97.7028       -0.0118434          147.69
0.552                  -0.756927        -148.146         -57.9784        -99.5558         -58.0065        -99.6641       -0.0119548          147.62
0.553                  -0.780218        -148.701         -57.6973        -101.493          -57.724        -101.599       -0.0120676          147.55
0.554                  -0.804067        -149.257         -57.4175        -103.407         -57.4428         -103.51       -0.0121817          147.48
0.555                  -0.828481        -149.816          -57.139          -105.3         -57.1629          -105.4       -0.0122971         147.409
0.556                  -0.853465        -150.376         -56.8619        -107.176         -56.8844        -107.272        -0.012414         147.339
0.557                  -0.879026        -150.939         -56.5862        -109.036         -56.6074        -109.128       -0.0125323         147.268
0.558                  -0.905169        -151.503         -56.3121        -110.882          -56.332         -110.97       -0.0126519         147.198
0.559                  -0.931901        -152.069         -56.0395        -112.718         -56.0581        -112.801       -0.0127731         147.127
0.56                   -0.959228        -152.637         -55.7685        -114.545         -55.7858        -114.624       -0.0128956         147.056
0.561                  -0.987156        -153.207         -55.4992        -116.365         -55.5151        -116.439       -0.0130197         146.985
0.562                   -1.01569        -153.778         -55.2315        -118.181         -55.2462         -118.25       -0.0131452         146.914
0.563                   -1.04484        -154.351         -54.9654        -119.994         -54.9788        -120.058       -0.0132722         146.842
0.564                   -1.07461        -154.926          -54.701        -121.807         -54.7132        -121.866       -0.0134008         146.771
0.565                     -1.105        -155.503         -54.4383        -123.621         -54.4493        -123.674       -0.0135309         146.699
0.566                   -1.13602        -156.081         -54.1773        -125.439          -54.187        -125.486       -0.0136625         146.628
0.567                   -1.16767        -156.661          -53.918        -127.261         -53.9265        -127.302       -0.0137958         146.556
0.568                   -1.19997        -157.242         -53.6605         -129.09         -53.6678        -129.125       -0.0139306         146.484
0.569                   -1.23292        -157.825         -53.4047        -130.927         -53.4107        -130.956       -0.0140671         146.412
0.57                    -1.26652         -158.41         -53.1507        -132.774         -53.1555        -132.797       -0.0142051          146.34
0.571                   -1.30078        -158.996         -52.8985        -134.632          -52.902        -134.649       -0.0143449         146.267
0.572                    -1.3357        -159.584         -52.6481        -136.503         -52.6504        -136.515       -0.0144863         146.195
0.573                   -1.37129        -160.173         -52.3996        -138.389         -52.4007        -138.394       -0.0146294         146.122
0.574                   -1.40756        -160.763          -52.153        -140.291         -52.1529         -140.29       -0.0147743         146.049
0.575                    -1.4445        -161.355         -51.9083         -142.21          -51.907        -142.203       -0.0149209         145.976
0.576                   -1.48213        -161.949         -51.6658        -144.148         -51.6632        -144.135       -0.0150692         145.903
0.577                   -1.52046        -162.544         -51.4253        -146.106         -51.4214        -146.087       -0.0152194          145.83
0.578                   -1.55948         -163.14          -51.187        -148.085         -51.1819        -148.061       -0.0153713         145.757
0.579                    -1.5992        -163.737          -50.951        -150.088         -50.9446        -150.057       -0.0155251         145.683
0.58                    -1.63962        -164.336         -50.7173        -152.113         -50.7097        -152.077       -0.0156808          145.61
0.581                   -1.68076        -164.936         -50.4861        -154.164         -50.4772        -154.123       -0.0158384         145.536
0.582                   -1.72262        -165.537         -50.2576        -156.242         -50.2473        -156.195       -0.0159978         145.462
0.583                   -1.76519         -166.14         -50.0318        -158.346         -50.0202        -158.294       -0.0161592         145.388
0.584                   -1.80849        -166.744         -49.8088        -160.478          -49.796        -160.421       -0.0163226         145.313
0.585                   -1.85253        -167.349         -49.5889        -162.639         -49.5747        -162.578        -0.016488         145.239
0.586                    -1.8973        -167.955         -49.3723        -164.831         -49.3567        -164.764       -0.0166554         145.164
0.587                   -1.94281        -168.562          -49.159        -167.052         -49.1421        -166.982       -0.0168248         145.089
0.588                   -1.98906         -169.17         -48.9493        -169.305          -48.931        -169.231       -0.0169964         145.014
0.589                   -2.03606         -169.78         -48.7433        -171.589         -48.7237        -171.511         -0.01717         144.939
0.59                    -2.08382         -170.39         -48.5414        -173.906         -48.5204        -173.824       -0.0173458         144.864
0.591                   -2.13234        -171.002         -48.3436        -176.254         -48.3214         -176.17       -0.0175238         144.788
0.592                   -2.18162        -171.614         -48.1504        -178.635         -48.1267        -178.548       -0.0177039         144.713
0.593                   -2.23167        -172.228         -47.9617         178.952         -47.9367          179.04       -0.0178864         144.637
0.594                   -2.28249        -172.842          -47.778         176.506         -47.7517         176.597        -0.018071         144.561
0.595                   -2.33409        -173.458         -47.5994         174.029         -47.5718         174.121        -0.018258         144.485
0.596                   -2.38647        -174.075         -47.4262         171.521         -47.3973         171.614       -0.0184474         144.409
0.597                   -2.43963        -174.692         -47.2586         168.983         -47.2285         169.076       -0.0186391         144.332
0.598                   -2.49358         -175.31         -47.0969         166.415         -47.0656         166.507       -0.0188332         144.255
0.599                   -2.54833         -175.93         -46.9412         163.818         -46.9087          163.91       -0.0190298         144.178
0.6                     -2.60388         -176.55         -46.7918         161.194         -46.7582         161.286       -0.0192289         144.101
0.601                   -2.66022        -177.171         -46.6489         158.545         -46.6142         158.635       -0.0194305         144.024
0.602                   -2.71737        -177.793         -46.5127         155.871         -46.4769         155.959       -0.0196347         143.947
0.603                   -2.77534        -178.416         -46.3832         153.175         -46.3465          153.26       -0.0198415         143.869
0.604                   -2.83412         -179.04         -46.2607         150.458         -46.2231         150.541       -0.0200509         143.791
0.605                   -2.89371        -179.664         -46.1453         147.723         -46.1068         147.803        -0.020263         143.713
0.606                   -2.95413          179.71         -46.0369         144.972         -45.9978         145.048       -0.0204779         143.635
0.607                   -3.01537         179.084         -45.9358         142.207          -45.896         142.279       -0.0206956         143.556
0.608                   -3.07745         178.456         -45.8419          139.43         -45.8015         139.498       -0.0209161         143.477
0.609                   -3.14036         177.828         -45.7551         136.643         -45.7143         136.707       -0.0211394         143.399
0.61                     -3.2041         177.199         -45.6755          133.85         -45.6343         133.909       -0.0213657         143.319
0.611                   -3.26869          176.57         -45.6029         131.052         -45.5614         131.107        -0.021595          143.24
0.612                   -3.33413         175.939         -45.5373         128.252         -45.4956         128.302       -0.0218273         143.161
0.613                   -3.40041         175.307         -45.4785         125.452         -45.4367         125.496       -0.0220626         143.081
0.614                   -3.46755         174.675         -45.4263         122.654         -45.3845         122.694       -0.0223011         143.001
0.615                   -3.53554         174.042         -45.3805          119.86         -45.3388         119.895       -0.0225428         142.921
0.616                    -3.6044         173.408         -45.3408         117.073         -45.2994         117.103       -0.0227877          142.84
0.617                   -3.67412         172.773         -45.3071         114.294          -45.266          114.32       -0.0230358          142.76
0.618                   -3.74472         172.137         -45.2791         111.526         -45.2383         111.547       -0.0232874         142.679
0.619                   -3.81618           171.5         -45.2564         108.769          -45.216         108.785       -0.0235423         142.598
0.62                    -3.88852         170.862         -45.2387         106.025         -45.1989         106.037       -0.0238007         142.516
0.621                   -3.96175         170.223         -45.2258         103.295         -45.1865         103.304       -0.0240626         142.435
0.622                   -4.03585         169.583         -45.2173         100.581         -45.1786         100.586        -0.024328         142.353
0.623                   -4.11085         168.942         -45.2128          97.884         -45.1749         97.8849       -0.0245972         142.271
0.624                   -4.18674         168.301         -45.2121         95.2039         -45.1749         95.2014         -0.02487         142.188
0.625                   -4.26352         167.658         -45.2147         92.5417         -45.1783         92.5362       -0.0251467         142.106
0.626                   -4.34121         167.014         -45.2204          89.898         -45.1849         89.8897       -0.0254271         142.023
0.627                    -4.4198         166.369         -45.2288          87.273         -45.1942         87.2623       -0.0257115          141.94
0.628                    -4.4993         165.723         -45.2396         84.6672         -45.2059         84.6541       -0.0259999         141.856
0.629                   -4.57972         165.076         -45.2525         82.0805         -45.2198         82.0655       -0.0262923         141.772
0.63                    -4.66105         164.428         -45.2672         79.5131         -45.2354         79.4963       -0.0265889         141.689
0.631                    -4.7433         163.779         -45.2833         76.9647         -45.2525         76.9465       -0.0268897         141.604
0.632                   -4.82649         163.128         -45.3006         74.4353         -45.2709         74.4158       -0.0271948          141.52
0.633                    -4.9106         162.476         -45.3188         71.9246         -45.2901         71.9041       -0.0275043         141.435
0.634                   -4.99565         161.824         -45.3377         69.4323           -45.31          69.411       -0.0278183          141.35
0.635                   -5.08164          161.17          -45.357          66.958         -45.3303         66.9361       -0.0281368         141.265
0.636                   -5.16859         160.514         -45.3764         64.5014         -45.3507         64.4791       -0.0284599         141.179
0.637                   -5.25648         159.858         -45.3957         62.0619         -45.3711         62.0393       -0.0287878         141.093
0.638                   -5.34534           159.2         -45.4148         59.6391         -45.3912         59.6164       -0.0291204         141.007
0.639                   -5.43516         158.541         -45.4333         57.2324         -45.4108         57.2098        -0.029458          140.92
0.64                    -5.52596         157.881         -45.4512         54.8413         -45.4297         54.8189       -0.0298006         140.833
0.641                   -5.61774         157.219         -45.4683         52.4653         -45.4478         52.4433       -0.0301484         140.746
0.642                   -5.71051         156.556         -45.4843         50.1039         -45.4648         50.0822       -0.0305013         140.659
0.643                   -5.80427         155.892         -45.4992         47.7564         -45.4806         47.7352       -0.0308595         140.571
0.644                   -5.89905         155.226         -45.5127         45.4223         -45.4951         45.4018       -0.0312232         140.483
0.645                   -5.99484          154.56         -45.5248         43.1011         -45.5081         43.0812       -0.0315924         140.394
0.646                   -6.09166         153.892         -45.5353         40.7922         -45.5196          40.773       -0.0319672         140.305
0.647                   -6.18953         153.223         -45.5442          38.495         -45.5293         38.4767       -0.0323478         140.216
0.648                   -6.28845         152.552         -45.5512         36.2091         -45.5373         36.1916       -0.0327343         140.127
0.649                   -6.38843         151.881         -45.5564          33.934         -45.5433         33.9173       -0.0331268         140.037
0.65                     -6.4895         151.208         -45.5597          31.669         -45.5474         31.6532       -0.0335254         139.947
0.651                   -6.59168         150.534         -45.5608         29.4139         -45.5494         29.3989       -0.0339303         139.856
0.652                   -6.69497         149.859         -45.5599         27.1679         -45.5492         27.1539       -0.0343415         139.765
0.653                   -6.79939         149.183         -45.5568         24.9308         -45.5469         24.9177       -0.0347593         139.674
0.654                   -6.90498         148.506         -45.5515         22.7021         -45.5423         22.6899       -0.0351837         139.582
0.655                   -7.01175         147.828         -45.5439         20.4814         -45.5355           20.47        -0.035615          139.49
0.656                   -7.11973         147.149          -45.534         18.2681         -45.5263         18.2577       -0.0360531         139.397
0.657                   -7.22895          146.47         -45.5218          16.062         -45.5147         16.0524       -0.0364984         139.305
0.658                   -7.33942          145.79         -45.5072         13.8627         -45.5007         13.8539        -0.036951         139.211
0.659                    -7.4512         145.109         -45.4902         11.6697         -45.4843         11.6618       -0.0374109         139.118
0.66                    -7.56431         144.428         -45.4707         9.48283         -45.4655          9.4757       -0.0378784         139.024
0.661                   -7.67878         143.747         -45.4489         7.30161         -45.4442         7.29525       -0.0383537         138.929
0.662                   -7.79466         143.065         -45.4246         5.12575         -45.4205         5.12014       -0.0388368         138.834
0.663                   -7.91199         142.384         -45.3979         2.95494         -45.3943         2.95004       -0.0393281         138.739
0.664                   -8.03082         141.702         -45.3688        0.788857         -45.3657        0.784645       -0.0398276         138.643
0.665                    -8.1512         141.021         -45.3373        -1.37279         -45.3346        -1.37635       -0.0403355         138.547
0.666                   -8.27317         140.341         -45.3033         -3.5303         -45.3011        -3.53323       -0.0408521          138.45
0.667                    -8.3968         139.661          -45.267        -5.68394         -45.2651        -5.68628       -0.0413776         138.353
0.668                   -8.52215         138.982         -45.2283        -7.83401         -45.2268        -7.83578        -0.041912         138.255
0.669                   -8.64927         138.304         -45.1873        -9.98075         -45.1861        -9.98199       -0.0424558         138.157
0.67                    -8.77825         137.627         -45.1439        -12.1244         -45.1431        -12.1252       -0.0430089         138.059
0.671                   -8.90915         136.952         -45.0982        -14.2653         -45.0978        -14.2656       -0.0435718          137.96
0.672                   -9.04205          136.28         -45.0503        -16.4037         -45.0501        -16.4035       -0.0441445          137.86
0.673                   -9.17703         135.609         -45.0002        -18.5397         -45.0003        -18.5391       -0.0447274          137.76
0.674                   -9.31419         134.941         -44.9479        -20.6737         -44.9482        -20.6727       -0.0453207         137.659
0.675                   -9.45361         134.276         -44.8935        -22.8058          -44.894        -22.8045       -0.0459245         137.558
0.676                   -9.59539         133.615          -44.837        -24.9363         -44.8377        -24.9347       -0.0465393         137.457
0.677                   -9.73964         132.957         -44.7784        -27.0655         -44.7793        -27.0635       -0.0471651         137.355
0.678                   -9.88646         132.304         -44.7178        -29.1935         -44.7189        -29.1912       -0.0478023         137.252
0.679                    -10.036         131.656         -44.6553        -31.3206         -44.6565         -31.318       -0.0484512         137.149
0.68                    -10.1883         131.013         -44.5909        -33.4469         -44.5923        -33.4441       -0.0491121         137.045
0.681                   -10.3436         130.377         -44.5247        -35.5727         -44.5261        -35.5697       -0.0497851          136.94
0.682                   -10.5019         129.748         -44.4567        -37.6982         -44.4582         -37.695       -0.0504707         136.835
0.683                   -10.6635         129.126          -44.387        -39.8236         -44.3886        -39.8202       -0.0511691          136.73
0.684                   -10.8284         128.513         -44.3156         -41.949         -44.3172        -41.9455       -0.0518807         136.624
0.685                   -10.9969          127.91         -44.2426        -44.0747         -44.2443        -44.0711       -0.0526057         136.517
0.686                   -11.1691         127.317         -44.1681        -46.2008         -44.1698        -46.1971       -0.0533445         136.409
0.687                    -11.345         126.736         -44.0921        -48.3275         -44.0938        -48.3237       -0.0540975         136.301
0.688                   -11.5251         126.169         -44.0146         -50.455         -44.0164        -50.4511        -0.054865         136.193
0.689                   -11.7093         125.616         -43.9359        -52.5834         -43.9376        -52.5795       -0.0556473         136.083
0.69                    -11.8979         125.079         -43.8558        -54.7129         -43.8575        -54.7089       -0.0564449         135.973
0.691                   -12.0911         124.561         -43.7746        -56.8436         -43.7763        -56.8396        -0.057258         135.863
0.692                   -12.2891         124.062         -43.6921        -58.9756         -43.6938        -58.9716       -0.0580872         135.751
0.693                    -12.492         123.586         -43.6086         -61.109         -43.6102         -61.105       -0.0589328         135.639
0.694                   -12.7002         123.135         -43.5241         -63.244         -43.5257        -63.2401       -0.0597953         135.527
0.695                   -12.9136         122.711         -43.4386        -65.3806         -43.4401        -65.3767        -0.060675         135.413
0.696                   -13.1327         122.319         -43.3522        -67.5189         -43.3537        -67.5151       -0.0615725         135.299
0.697                   -13.3574          121.96          -43.265         -69.659         -43.2664        -69.6553       -0.0624882         135.184