! TOUCHSTONE file generated by CST MICROWAVE STUDIO
! Date and time: Sat Oct 24 11:43:58 2020
! Project name: Scenario_1_Circular_Tissue_out_of_Line.cst
! Parameters = {dy1=-189.931; L_HA=400; MT=2.54; Rad_Dielectric=30; Rad_Lower=7.3; Rad_Upper=30; a_HA=580; a_WG=246; b_HA=500; b_WG=121; c_HA=0; c_WG=187; d_feed=85; dx1=1039; h_feed=15; h_lower=18; h_upper=40}
! Header version: 2018
! Port assignment regex: !\s*Touchstone port\s*([0-9]+)\s*=\s*(CST MWS port|CST DS port)\s*([0-9]+|Zmin|Zmax)\s*\(\"(.*)\"\)(\s*mode\s*([0-9]+))?.*
! Touchstone port assignment:
! Touchstone port 1 = CST MWS port 1 ("")
! Touchstone port 2 = CST MWS port 2 ("")
# GHz S DB R 50
0.5                     -0.14559         -122.23          -64.141        -3.56984         -64.1252        -4.47013      -0.00764418         151.118
0.501                  -0.150739        -122.685         -63.9291        -5.52194         -63.9127        -6.58788      -0.00770205         151.053
0.502                  -0.156151        -123.143          -63.719        -7.49842         -63.7024        -8.71577      -0.00776083         150.988
0.503                  -0.161829        -123.602         -63.5107        -9.49928         -63.4945        -10.8543      -0.00782051         150.922
0.504                  -0.167777        -124.063         -63.3043        -11.5245         -63.2887         -13.004      -0.00788111         150.857
0.505                  -0.173997        -124.526         -63.0997        -13.5741         -63.0852        -15.1652      -0.00794263         150.791
0.506                  -0.180492        -124.991          -62.897        -15.6479         -62.8839        -17.3384      -0.00800507         150.725
0.507                  -0.187265        -125.457         -62.6961         -17.746         -62.6847        -19.5239      -0.00806843          150.66
0.508                  -0.194319        -125.926          -62.497        -19.8681         -62.4877         -21.722      -0.00813273         150.594
0.509                  -0.201657        -126.396         -62.2998        -22.0142         -62.2928        -23.9329      -0.00819796         150.528
0.51                    -0.20928        -126.868         -62.1045        -24.1841         -62.0999         -26.157      -0.00826413         150.462
0.511                  -0.217193        -127.341         -61.9112        -26.3776         -61.9092        -28.3945      -0.00833124         150.396
0.512                  -0.225396        -127.816         -61.7197        -28.5945         -61.7206        -30.6454       -0.0083993          150.33
0.513                  -0.233894        -128.293         -61.5302        -30.8345          -61.534        -32.9101      -0.00846832         150.264
0.514                  -0.242687        -128.772         -61.3426        -33.0973         -61.3494        -35.1885      -0.00853829         150.197
0.515                  -0.251779        -129.252          -61.157        -35.3827         -61.1669        -37.4808      -0.00860923         150.131
0.516                  -0.261171        -129.735         -60.9735        -37.6902         -60.9864         -39.787      -0.00868113         150.064
0.517                  -0.270866        -130.218         -60.7919        -40.0195         -60.8079        -42.1072      -0.00875401         149.998
0.518                  -0.280866        -130.704         -60.6124        -42.3702         -60.6314        -44.4412      -0.00882787         149.931
0.519                  -0.291172        -131.191          -60.435        -44.7417         -60.4569        -46.7892      -0.00890272         149.864
0.52                   -0.301786         -131.68         -60.2596        -47.1337         -60.2844        -49.1509      -0.00897856         149.798
0.521                   -0.31271         -132.17         -60.0863        -49.5456         -60.1139        -51.5264      -0.00905539         149.731
0.522                  -0.323946        -132.662         -59.9152        -51.9768         -59.9454        -53.9154      -0.00913323         149.664
0.523                  -0.335494        -133.155         -59.7462        -54.4268         -59.7788        -56.3178      -0.00921208         149.597
0.524                  -0.347356        -133.651         -59.5793         -56.895         -59.6141        -58.7335      -0.00929194          149.53
0.525                  -0.359534        -134.147         -59.4146        -59.3807         -59.4514        -61.1622      -0.00937283         149.462
0.526                  -0.372027        -134.646          -59.252        -61.8832         -59.2906        -63.6037      -0.00945474         149.395
0.527                  -0.384837        -135.145         -59.0916        -64.4019         -59.1316        -66.0576      -0.00953769         149.328
0.528                  -0.397965        -135.647         -58.9333        -66.9361         -58.9746        -68.5239      -0.00962168          149.26
0.529                  -0.411411         -136.15         -58.7772         -69.485         -58.8195         -71.002      -0.00970672         149.193
0.53                   -0.425175        -136.654         -58.6233        -72.0479         -58.6662        -73.4918      -0.00979282         149.125
0.531                  -0.439258         -137.16         -58.4714         -74.624         -58.5147        -75.9929      -0.00987999         149.057
0.532                  -0.453658        -137.667         -58.3217        -77.2125         -58.3651        -78.5049      -0.00996822         148.989
0.533                  -0.468377        -138.176         -58.1741        -79.8127         -58.2173        -81.0274       -0.0100575         148.921
0.534                  -0.483413        -138.687         -58.0285        -82.4238         -58.0712          -83.56       -0.0101479         148.853
0.535                  -0.498766        -139.198          -57.885        -85.0449         -57.9268        -86.1024       -0.0102394         148.785
0.536                  -0.514435        -139.712         -57.7434        -87.6754         -57.7842        -88.6541        -0.010332         148.717
0.537                  -0.530418        -140.226         -57.6038        -90.3144         -57.6432        -91.2147       -0.0104257         148.648
0.538                  -0.546715        -140.742         -57.4662        -92.9612         -57.5039        -93.7838       -0.0105206          148.58
0.539                  -0.563323         -141.26         -57.3304        -95.6149         -57.3663        -96.3609       -0.0106165         148.511
0.54                   -0.580242        -141.779         -57.1965        -98.2749         -57.2302        -98.9456       -0.0107137         148.443
0.541                  -0.597467        -142.299         -57.0643         -100.94         -57.0956        -101.537       -0.0108119         148.374
0.542                  -0.614998        -142.821         -56.9338        -103.611         -56.9625        -104.136       -0.0109113         148.305
0.543                  -0.632832        -143.344          -56.805        -106.285         -56.8309        -106.741       -0.0110119         148.236
0.544                  -0.650966        -143.868         -56.6778        -108.963         -56.7008        -109.351       -0.0111136         148.167
0.545                  -0.669396        -144.394         -56.5521        -111.643          -56.572        -111.967       -0.0112166         148.098
0.546                  -0.688119        -144.922         -56.4279        -114.326         -56.4445        -114.588       -0.0113207         148.029
0.547                  -0.707131         -145.45         -56.3051         -117.01         -56.3183        -117.213       -0.0114261         147.959
0.548                  -0.726429         -145.98         -56.1836        -119.695         -56.1934        -119.843       -0.0115326          147.89
0.549                  -0.746008        -146.512         -56.0633        -122.381         -56.0696        -122.476       -0.0116404          147.82
0.55                   -0.765864        -147.045         -55.9442        -125.066          -55.947        -125.112       -0.0117495          147.75
0.551                  -0.785992         -147.58         -55.8263        -127.751         -55.8255        -127.751       -0.0118598          147.68
0.552                  -0.806387        -148.116         -55.7094        -130.435          -55.705        -130.393       -0.0119713         147.611
0.553                  -0.827043        -148.653         -55.5934        -133.118         -55.5856        -133.037       -0.0120842          147.54
0.554                  -0.847956        -149.192         -55.4784        -135.799         -55.4671        -135.683       -0.0121983          147.47
0.555                  -0.869119        -149.733         -55.3642        -138.478         -55.3494         -138.33       -0.0123137           147.4
0.556                  -0.890527        -150.276         -55.2508        -141.155         -55.2327        -140.978       -0.0124305          147.33
0.557                  -0.912174         -150.82          -55.138        -143.829         -55.1167        -143.627       -0.0125485         147.259
0.558                  -0.934054        -151.365         -55.0259          -146.5         -55.0015        -146.277       -0.0126679         147.188
0.559                   -0.95616        -151.913         -54.9144        -149.168          -54.887        -148.927       -0.0127887         147.118
0.56                   -0.978487        -152.462         -54.8034        -151.833         -54.7732        -151.577       -0.0129109         147.047
0.561                   -1.00103        -153.014         -54.6928        -154.495           -54.66        -154.226       -0.0130344         146.976
0.562                   -1.02378        -153.567         -54.5826        -157.153         -54.5474        -156.876       -0.0131593         146.904
0.563                   -1.04673        -154.123         -54.4728        -159.808         -54.4353        -159.525       -0.0132856         146.833
0.564                   -1.06988         -154.68         -54.3633         -162.46         -54.3237        -162.173       -0.0134134         146.762
0.565                   -1.09322         -155.24         -54.2541        -165.107         -54.2126         -164.82       -0.0135426          146.69
0.566                   -1.11674        -155.803          -54.145        -167.752          -54.102        -167.466       -0.0136733         146.619
0.567                   -1.14045        -156.368         -54.0362        -170.392         -53.9917        -170.111       -0.0138054         146.547
0.568                   -1.16434        -156.935         -53.9274        -173.029         -53.8818        -172.755        -0.013939         146.475
0.569                    -1.1884        -157.506         -53.8188        -175.663         -53.7722        -175.397       -0.0140742         146.403
0.57                    -1.21264        -158.079         -53.7103        -178.294         -53.6629        -178.038       -0.0142108         146.331
0.571                   -1.23705        -158.656         -53.6018         179.079         -53.5539         179.323       -0.0143491         146.258
0.572                   -1.26163        -159.236         -53.4934         176.455         -53.4452         176.685       -0.0144888         146.186
0.573                    -1.2864         -159.82          -53.385         173.834         -53.3367         174.049       -0.0146302         146.113
0.574                   -1.31135        -160.407         -53.2766         171.215         -53.2285         171.414       -0.0147731          146.04
0.575                   -1.33649        -160.999         -53.1681           168.6         -53.1204         168.781       -0.0149177         145.967
0.576                   -1.36183        -161.594         -53.0597         165.987         -53.0126          166.15       -0.0150639         145.894
0.577                   -1.38738        -162.194         -52.9513         163.376         -52.9049          163.52       -0.0152118         145.821
0.578                   -1.41316        -162.799         -52.8428         160.767         -52.7974         160.892       -0.0153613         145.748
0.579                    -1.4392         -163.41         -52.7343         158.161         -52.6901         158.266       -0.0155125         145.674
0.58                    -1.46551        -164.025         -52.6258         155.556          -52.583          155.64       -0.0156655         145.601
0.581                   -1.49212        -164.646         -52.5173         152.952         -52.4761         153.017       -0.0158201         145.527
0.582                   -1.51907        -165.273         -52.4088          150.35         -52.3693         150.394       -0.0159766         145.453
0.583                   -1.54641        -165.906         -52.3004          147.75         -52.2627         147.773       -0.0161348         145.379
0.584                   -1.57417        -166.545          -52.192          145.15         -52.1563         145.154       -0.0162948         145.305
0.585                    -1.6024        -167.192         -52.0837         142.551         -52.0501         142.535       -0.0164566          145.23
0.586                   -1.63118        -167.845         -51.9754         139.953          -51.944         139.917       -0.0166203         145.156
0.587                   -1.66056        -168.506         -51.8673         137.355         -51.8382         137.301       -0.0167858         145.081
0.588                   -1.69062        -169.175         -51.7593         134.757         -51.7327         134.686       -0.0169532         145.006
0.589                   -1.72145        -169.851         -51.6515          132.16         -51.6274         132.071       -0.0171225         144.931
0.59                    -1.75313        -170.536         -51.5439         129.562         -51.5223         129.457       -0.0172937         144.856
0.591                   -1.78576        -171.228         -51.4365         126.964         -51.4176         126.844       -0.0174669          144.78
0.592                   -1.81945        -171.929         -51.3294         124.366         -51.3131         124.232        -0.017642         144.705
0.593                   -1.85431        -172.638         -51.2226         121.767          -51.209          121.62       -0.0178191         144.629
0.594                   -1.89045        -173.355         -51.1162         119.168         -51.1052         119.009       -0.0179983         144.553
0.595                   -1.92801         -174.08         -51.0102         116.568         -51.0018         116.398       -0.0181794         144.477
0.596                   -1.96711        -174.812         -50.9046         113.967         -50.8989         113.788       -0.0183625         144.401
0.597                   -2.00788        -175.553         -50.7994         111.366         -50.7963         111.178       -0.0185477         144.324
0.598                   -2.05043          -176.3         -50.6948         108.763         -50.6942         108.568        -0.018735         144.247
0.599                   -2.09491        -177.053         -50.5908          106.16         -50.5927         105.959       -0.0189243         144.171
0.6                     -2.14141        -177.812         -50.4873         103.556         -50.4916          103.35       -0.0191156         144.094
0.601                   -2.19007        -178.577         -50.3845         100.951         -50.3911         100.742        -0.019309         144.016
0.602                   -2.24096        -179.345         -50.2823         98.3448         -50.2912         98.1336       -0.0195045         143.939
0.603                   -2.29419         179.885         -50.1809         95.7379         -50.1919         95.5258        -0.019702         143.861
0.604                    -2.3498         179.112         -50.0802         93.1302         -50.0932         92.9184       -0.0199015         143.784
0.605                   -2.40785         178.339         -49.9804         90.5218         -49.9952         90.3113        -0.020103         143.706
0.606                   -2.46836         177.566         -49.8814         87.9128         -49.8979         87.7048       -0.0203063         143.628
0.607                   -2.53132         176.795         -49.7833         85.3033         -49.8013         85.0987       -0.0205115         143.549
0.608                   -2.59671         176.028          -49.686         82.6934         -49.7055         82.4933       -0.0207184         143.471
0.609                   -2.66447         175.265         -49.5898         80.0832         -49.6105         79.8885       -0.0209268         143.392
0.61                    -2.73452         174.508         -49.4945          77.473         -49.5163         77.2845       -0.0211366         143.313
0.611                   -2.80675         173.757         -49.4002          74.863         -49.4229         74.6813       -0.0213474         143.234
0.612                   -2.88104         173.015         -49.3069         72.2533         -49.3304         72.0792       -0.0215588         143.154
0.613                   -2.95723         172.282         -49.2147         69.6441         -49.2387         69.4782       -0.0217703         143.075
0.614                   -3.03516         171.559         -49.1236         67.0356          -49.148         66.8784        -0.021981         142.995
0.615                   -3.11464         170.845         -49.0335         64.4282         -49.0581         64.2801       -0.0221897         142.915
0.616                   -3.19549         170.143         -48.9446         61.8219         -48.9692         61.6833       -0.0223945         142.835
0.617                   -3.27749         169.452         -48.8567         59.2172         -48.8813         59.0882       -0.0225924         142.755
0.618                   -3.36046         168.773           -48.77         56.6143         -48.7942         56.4951       -0.0227784         142.675
0.619                    -3.4442         168.104         -48.6845         54.0133         -48.7082          53.904       -0.0229432         142.594
0.62                     -3.5285         167.447            -48.6         51.4147         -48.6231         51.3152       -0.0230688         142.515
0.621                    -3.6132           166.8         -48.5167         48.8186          -48.539         48.7288       -0.0231148         142.436
0.622                   -3.69811         166.164         -48.4345         46.2253         -48.4559         46.1451       -0.0229916         142.361
0.623                   -3.78308         165.537         -48.3534         43.6348         -48.3737         43.5638         -0.02421         142.315
0.624                   -3.86795         164.919         -48.2732         41.0485         -48.2924         40.9865       -0.0296606         142.165
0.625                   -3.95262         164.309         -48.1943         38.4656         -48.2122          38.412       -0.0267191         142.088
0.626                   -4.03696         163.706         -48.1164         35.8866         -48.1329          35.841        -0.026282         142.009
0.627                   -4.12088         163.109         -48.0395         33.3117         -48.0546         33.2736       -0.0262607         141.927
0.628                   -4.20431         162.517         -47.9636         30.7412         -47.9771         30.7101       -0.0263791         141.845
0.629                    -4.2872         161.929         -47.8887         28.1754         -47.9006         28.1506       -0.0265621         141.762
0.63                    -4.36949         161.345         -47.8147         25.6145          -47.825         25.5953       -0.0267815         141.679
0.631                   -4.45118         160.762         -47.7416         23.0587         -47.7502         23.0445       -0.0270241         141.595
0.632                   -4.53225         160.181         -47.6694         20.5083         -47.6762         20.4983       -0.0272832         141.511
0.633                    -4.6127         159.599         -47.5979         17.9633         -47.6031         17.9569        -0.027555         141.426
0.634                   -4.69257         159.016         -47.5272         15.4239         -47.5307         15.4203       -0.0278372         141.341
0.635                   -4.77188         158.432         -47.4573         12.8904          -47.459         12.8889       -0.0281283         141.256
0.636                   -4.85068         157.844          -47.388         10.3628         -47.3881         10.3627       -0.0284273         141.171
0.637                   -4.92903         157.252         -47.3193         7.84119         -47.3178         7.84177       -0.0287336         141.085
0.638                   -5.00699         156.655         -47.2513         5.32571         -47.2482         5.32632       -0.0290469         140.999
0.639                   -5.08465         156.053         -47.1837         2.81639         -47.1791          2.8164       -0.0293668         140.912
0.64                     -5.1621         155.443         -47.1166         0.31328         -47.1106        0.312092       -0.0296931         140.826
0.641                   -5.23943         154.827         -47.0499         -2.1836         -47.0426        -2.18654       -0.0300258         140.739
0.642                   -5.31675         154.202         -46.9835        -4.67426          -46.975        -4.67946       -0.0303648         140.651
0.643                   -5.39418         153.569         -46.9175        -7.15873         -46.9078        -7.16664       -0.0307102         140.563
0.644                   -5.47185         152.926         -46.8517        -9.63705          -46.841        -9.64806       -0.0310619         140.475
0.645                   -5.54988         152.272         -46.7861        -12.1093         -46.7746        -12.1238       -0.0314202         140.387
0.646                   -5.62843         151.608         -46.7206        -14.5756         -46.7084        -14.5937        -0.031785         140.298
0.647                   -5.70764         150.933         -46.6553         -17.036         -46.6424        -17.0581       -0.0321565         140.209
0.648                   -5.78767         150.245         -46.5899        -19.4907         -46.5765        -19.5168       -0.0325348          140.12
0.649                    -5.8687         149.546         -46.5246        -21.9399         -46.5108        -21.9701       -0.0329201          140.03
0.65                    -5.95089         148.833         -46.4593        -24.3837         -46.4452         -24.418       -0.0333126          139.94
0.651                   -6.03444         148.108         -46.3938        -26.8224         -46.3796        -26.8606       -0.0337123          139.85
0.652                   -6.11955         147.369         -46.3282         -29.256         -46.3141        -29.2982       -0.0341196         139.759
0.653                   -6.20641         146.617         -46.2625         -31.685         -46.2484        -31.7308       -0.0345344         139.667
0.654                   -6.29524         145.851         -46.1966        -34.1095         -46.1827        -34.1587       -0.0349569         139.576
0.655                   -6.38626         145.071         -46.1304        -36.5298         -46.1169         -36.582       -0.0353873         139.484
0.656                   -6.47971         144.277          -46.064        -38.9462         -46.0509        -39.0011       -0.0358255         139.391
0.657                   -6.57583          143.47         -45.9973        -41.3589         -45.9847        -41.4161       -0.0362716         139.299
0.658                   -6.67486          142.65         -45.9304        -43.7684         -45.9184        -43.8273       -0.0367257         139.205
0.659                   -6.77705         141.816         -45.8631        -46.1747         -45.8517         -46.235       -0.0371875         139.112
0.66                    -6.88269          140.97         -45.7955        -48.5784         -45.7849        -48.6394       -0.0376572         139.018
0.661                   -6.99203         140.111         -45.7276        -50.9796         -45.7177        -51.0408       -0.0381346         138.923
0.662                   -7.10537         139.241         -45.6594        -53.3787         -45.6503        -53.4396       -0.0386197         138.828
0.663                   -7.22297          138.36         -45.5908         -55.776         -45.5826         -55.836       -0.0391125         138.733
0.664                   -7.34515         137.469          -45.522        -58.1717         -45.5146        -58.2303       -0.0396129         138.637
0.665                   -7.47219          136.57         -45.4529        -60.5662         -45.4463        -60.6228       -0.0401212         138.541
0.666                    -7.6044         135.664         -45.3835        -62.9597         -45.3777        -63.0139       -0.0406375         138.444
0.667                   -7.74207         134.751         -45.3139        -65.3525         -45.3089        -65.4038       -0.0411618         138.347
0.668                   -7.88552         133.834         -45.2441        -67.7448         -45.2398        -67.7927       -0.0416945          138.25
0.669                   -8.03504         132.915         -45.1741        -70.1368         -45.1706         -70.181       -0.0422358         138.151
0.67                    -8.19094         131.996         -45.1039        -72.5287         -45.1011        -72.5688        -0.042786         138.053
0.671                   -8.35352         131.078         -45.0337        -74.9206         -45.0315        -74.9564       -0.0433454         137.954
0.672                   -8.52307         130.165         -44.9635        -77.3126         -44.9617        -77.3439       -0.0439144         137.854
0.673                   -8.69987         129.259         -44.8932        -79.7048         -44.8919        -79.7315       -0.0444932         137.754
0.674                   -8.88419         128.364          -44.823        -82.0972         -44.8221        -82.1193       -0.0450823         137.654
0.675                   -9.07629         127.482         -44.7529        -84.4898         -44.7524        -84.5073       -0.0456819         137.553
0.676                   -9.27641         126.618          -44.683        -86.8826         -44.6827        -86.8956       -0.0462925         137.451
0.677                   -9.48476         125.775         -44.6133        -89.2754         -44.6131        -89.2841       -0.0469142         137.349
0.678                   -9.70155         124.957         -44.5439        -91.6681         -44.5438        -91.6727       -0.0475475         137.246
0.679                   -9.92691          124.17         -44.4748        -94.0604         -44.4748        -94.0613       -0.0481928         137.143
0.68                     -10.161         123.418         -44.4061        -96.4521          -44.406        -96.4496       -0.0488503         137.039
0.681                   -10.4038         122.706         -44.3378        -98.8429         -44.3377        -98.8374       -0.0495203         136.935
0.682                   -10.6554         122.041         -44.2699        -101.232         -44.2698        -101.224       -0.0502034          136.83
0.683                   -10.9158         121.428         -44.2026         -103.62         -44.2023         -103.61       -0.0508997         136.724
0.684                   -11.1848         120.874         -44.1358        -106.006         -44.1354        -105.994       -0.0516096         136.618
0.685                   -11.4622         120.387         -44.0696        -108.389          -44.069        -108.376       -0.0523336         136.511
0.686                   -11.7477         119.973          -44.004        -110.769         -44.0032        -110.755        -0.053072         136.404
0.687                   -12.0408         119.639         -43.9389        -113.146          -43.938        -113.131       -0.0538251         136.296
0.688                   -12.3411         119.396         -43.8745        -115.518         -43.8734        -115.503       -0.0545933         136.188
0.689                   -12.6476         119.249         -43.8106        -117.885         -43.8094        -117.871       -0.0553772         136.078
0.69                    -12.9595         119.209         -43.7473        -120.247          -43.746        -120.234       -0.0561769         135.968
0.691                   -13.2756         119.284         -43.6845        -122.603         -43.6831        -122.591       -0.0569931         135.858
0.692                   -13.5945         119.481         -43.6222        -124.953         -43.6208        -124.942       -0.0578261         135.746
0.693                   -13.9146          119.81         -43.5604        -127.296          -43.559        -127.285       -0.0586763         135.634
0.694                    -14.234         120.276         -43.4989        -129.631         -43.4976        -129.622       -0.0595442         135.522
0.695                   -14.5503         120.886         -43.4378        -131.957         -43.4365         -131.95       -0.0604304         135.408
0.696                    -14.861         121.644         -43.3769        -134.276         -43.3758        -134.269       -0.0613352         135.294
0.697                   -15.1633         122.552         -43.3162        -136.585         -43.3152         -136.58       -0.0622592         135.179