! TOUCHSTONE file generated by CST MICROWAVE STUDIO
! Date and time: Wed Oct 28 19:15:20 2020
! Project name: Scenario_1_Circular_Tissue_out_of_Line.cst
! Parameters = {dy1=-172.59; L_HA=400; MT=2.54; Rad_Dielectric=30; Rad_Lower=7.3; Rad_Upper=30; a_HA=580; a_WG=246; b_HA=500; b_WG=121; c_HA=0; c_WG=187; d_feed=85; dx1=693; h_feed=15; h_lower=18; h_upper=40}
! Header version: 2018
! Port assignment regex: !\s*Touchstone port\s*([0-9]+)\s*=\s*(CST MWS port|CST DS port)\s*([0-9]+|Zmin|Zmax)\s*\(\"(.*)\"\)(\s*mode\s*([0-9]+))?.*
! Touchstone port assignment:
! Touchstone port 1 = CST MWS port 1 ("")
! Touchstone port 2 = CST MWS port 2 ("")
# GHz S DB R 50
0.5                    -0.151867        -122.233          -62.713        -171.463         -62.6298        -171.589      -0.00769743         151.146
0.501                  -0.156834        -122.661         -62.5879        -173.195         -62.5224        -173.257      -0.00774924         151.081
0.502                  -0.161857        -123.092         -62.4609        -174.931         -62.4125        -174.934      -0.00780193         151.016
0.503                  -0.166942        -123.526          -62.332        -176.671         -62.3002        -176.619      -0.00785551         150.951
0.504                  -0.172094        -123.962         -62.2013        -178.415         -62.1856        -178.313      -0.00790998         150.885
0.505                  -0.177319        -124.401         -62.0689         179.837         -62.0685         179.985      -0.00796536          150.82
0.506                  -0.182626        -124.842         -61.9347         178.085         -61.9491         178.275      -0.00802165         150.754
0.507                  -0.188021        -125.286         -61.7989         176.329         -61.8274         176.558      -0.00807887         150.689
0.508                  -0.193512        -125.733         -61.6615         174.569         -61.7034         174.832      -0.00813702         150.623
0.509                  -0.199108        -126.183         -61.5225         172.805         -61.5771         173.099      -0.00819611         150.557
0.51                   -0.204817        -126.636         -61.3821         171.036         -61.4486         171.358      -0.00825616         150.491
0.511                   -0.21065        -127.091         -61.2402         169.263          -61.318          169.61      -0.00831717         150.425
0.512                  -0.216617         -127.55         -61.0969         167.485         -61.1852         167.853      -0.00837915         150.359
0.513                  -0.222729        -128.012         -60.9522         165.703         -61.0504          166.09      -0.00844211         150.293
0.514                  -0.228998        -128.477         -60.8063         163.916         -60.9135         164.318      -0.00850606         150.227
0.515                  -0.235436        -128.945         -60.6592         162.124         -60.7746         162.539      -0.00857102         150.161
0.516                  -0.242056        -129.417         -60.5109         160.326         -60.6338         160.753        -0.008637         150.094
0.517                  -0.248872        -129.891         -60.3614         158.523         -60.4911         158.958        -0.008704         150.028
0.518                    -0.2559         -130.37          -60.211         156.714         -60.3466         157.156      -0.00877204         149.962
0.519                  -0.263154        -130.851         -60.0595           154.9         -60.2003         155.346      -0.00884112         149.895
0.52                   -0.270651        -131.336          -59.907          153.08         -60.0523         153.529      -0.00891127         149.828
0.521                  -0.278407        -131.824         -59.7537         151.253         -59.9027         151.703      -0.00898249         149.761
0.522                  -0.286442        -132.316         -59.5995          149.42         -59.7515         149.869       -0.0090548         149.694
0.523                  -0.294773        -132.812         -59.4446          147.58         -59.5988         148.028       -0.0091282         149.627
0.524                  -0.303421        -133.311         -59.2889         145.733         -59.4447         146.177      -0.00920271          149.56
0.525                  -0.312404        -133.813         -59.1326         143.879         -59.2892         144.319      -0.00927835         149.493
0.526                  -0.321744         -134.32         -58.9757         142.018         -59.1325         142.452      -0.00935512         149.426
0.527                  -0.331463        -134.829         -58.8182         140.149         -58.9745         140.576      -0.00943304         149.359
0.528                  -0.341583        -135.343         -58.6603         138.272         -58.8153         138.691      -0.00951213         149.291
0.529                  -0.352127        -135.859         -58.5019         136.387         -58.6551         136.797      -0.00959239         149.224
0.53                   -0.363117         -136.38         -58.3432         134.494          -58.494         134.894      -0.00967384         149.156
0.531                  -0.374577        -136.903         -58.1841         132.593         -58.3319         132.982      -0.00975649         149.088
0.532                  -0.386531        -137.431         -58.0249         130.682          -58.169          131.06      -0.00984037          149.02
0.533                  -0.399003        -137.961         -57.8654         128.763         -58.0054         129.129      -0.00992547         148.953
0.534                  -0.412016        -138.495         -57.7059         126.835         -57.8412         127.187       -0.0100118         148.885
0.535                  -0.425594        -139.032         -57.5462         124.898         -57.6764         125.236       -0.0100994         148.816
0.536                  -0.439761        -139.572         -57.3866         122.951         -57.5111         123.274       -0.0101883         148.748
0.537                  -0.454539        -140.115         -57.2271         120.995         -57.3455         121.303       -0.0102785          148.68
0.538                  -0.469949        -140.661         -57.0677         119.028         -57.1796          119.32         -0.01037         148.611
0.539                  -0.486012        -141.209         -56.9086         117.052         -57.0136         117.327       -0.0104629         148.543
0.54                   -0.502748         -141.76         -56.7496         115.066         -56.8474         115.324        -0.010557         148.474
0.541                  -0.520174        -142.314         -56.5911          113.07         -56.6813          113.31       -0.0106526         148.406
0.542                  -0.538307        -142.869         -56.4329         111.064         -56.5153         111.284       -0.0107495         148.337
0.543                  -0.557159        -143.427         -56.2752         109.048         -56.3495         109.248       -0.0108477         148.268
0.544                  -0.576743        -143.986          -56.118         107.021          -56.184         107.201       -0.0109474         148.199
0.545                  -0.597066        -144.547         -55.9615         104.984         -56.0189         105.143       -0.0110486          148.13
0.546                  -0.618136        -145.109         -55.8056         102.937         -55.8544         103.074       -0.0111511          148.06
0.547                  -0.639953        -145.672         -55.6504         100.879         -55.6905         100.994       -0.0112551         147.991
0.548                  -0.662517        -146.236         -55.4961         98.8111         -55.5273         98.9025       -0.0113606         147.921
0.549                  -0.685824        -146.801         -55.3426         96.7329         -55.3649         96.8006       -0.0114676         147.852
0.55                   -0.709865        -147.366           -55.19         94.6447         -55.2035         94.6878       -0.0115761         147.782
0.551                  -0.734627         -147.93         -55.0385         92.5465         -55.0431         92.5645       -0.0116861         147.712
0.552                  -0.760094        -148.495         -54.8879         90.4385         -54.8837         90.4307       -0.0117977         147.642
0.553                  -0.786246        -149.059         -54.7385         88.3207         -54.7257         88.2866       -0.0119108         147.572
0.554                  -0.813057        -149.623         -54.5903         86.1934         -54.5689         86.1325       -0.0120255         147.502
0.555                  -0.840499        -150.186         -54.4433         84.0569         -54.4135         83.9687       -0.0121418         147.432
0.556                  -0.868541        -150.747         -54.2976         81.9113         -54.2596         81.7954       -0.0122597         147.361
0.557                  -0.897144        -151.307         -54.1532         79.7569         -54.1073          79.613       -0.0123792         147.291
0.558                  -0.926271        -151.866         -54.0102          77.594         -53.9567         77.4218       -0.0125004          147.22
0.559                  -0.955879        -152.424         -53.8686         75.4229         -53.8078         75.2223       -0.0126232         147.149
0.56                   -0.985923        -152.979         -53.7286          73.244         -53.6607         73.0149       -0.0127477         147.078
0.561                   -1.01636        -153.533           -53.59         71.0575         -53.5155            70.8       -0.0128739         147.007
0.562                   -1.04713        -154.086          -53.453          68.864         -53.3722         68.5781       -0.0130018         146.936
0.563                   -1.07819        -154.636         -53.3176         66.6637         -53.2309         66.3497       -0.0131314         146.865
0.564                   -1.10949        -155.185         -53.1838         64.4572         -53.0917         64.1155       -0.0132628         146.793
0.565                   -1.14099        -155.732         -53.0517         62.2448         -52.9546         61.8759       -0.0133959         146.722
0.566                   -1.17262        -156.278         -52.9213          60.027         -52.8196         59.6315       -0.0135307          146.65
0.567                   -1.20434        -156.822         -52.7926         57.8043         -52.6867         57.3829       -0.0136674         146.578
0.568                    -1.2361        -157.365         -52.6655         55.5771         -52.5561         55.1308       -0.0138058         146.506
0.569                   -1.26787        -157.907         -52.5402         53.3459         -52.4277         52.8757       -0.0139461         146.434
0.57                    -1.29959        -158.448         -52.4167         51.1112         -52.3014         50.6184       -0.0140881         146.362
0.571                   -1.33123        -158.989         -52.2948         48.8736         -52.1775         48.3593        -0.014232          146.29
0.572                   -1.36275        -159.529         -52.1747         46.6335         -52.0557         46.0992       -0.0143777         146.217
0.573                   -1.39412        -160.069         -52.0563         44.3914         -51.9361         43.8387       -0.0145253         146.145
0.574                   -1.42531         -160.61         -51.9396         42.1478         -51.8188         41.5784       -0.0146747         146.072
0.575                   -1.45631        -161.152         -51.8246         39.9033         -51.7036         39.3189        -0.014826         145.999
0.576                   -1.48709        -161.695         -51.7113         37.6583         -51.5905         37.0609       -0.0149791         145.926
0.577                   -1.51765        -162.239         -51.5996         35.4133         -51.4795         34.8048       -0.0151341         145.853
0.578                   -1.54796        -162.785         -51.4896         33.1688         -51.3706         32.5513       -0.0152911         145.779
0.579                   -1.57804        -163.334         -51.3811         30.9252         -51.2636         30.3009       -0.0154499         145.706
0.58                    -1.60788        -163.885         -51.2742         28.6831         -51.1586         28.0541       -0.0156106         145.632
0.581                   -1.63748        -164.439         -51.1688         26.4427         -51.0555         25.8114       -0.0157732         145.558
0.582                   -1.66686        -164.997         -51.0648         24.2047         -50.9542         23.5733       -0.0159377         145.484
0.583                   -1.69604        -165.559         -50.9623         21.9693         -50.8546         21.3401       -0.0161041          145.41
0.584                   -1.72503        -166.125         -50.8612         19.7369         -50.7568         19.1123       -0.0162724         145.336
0.585                   -1.75386        -166.696         -50.7614         17.5079         -50.6605         16.8902       -0.0164427         145.261
0.586                   -1.78256        -167.271         -50.6628         15.2827         -50.5657         14.6741       -0.0166149         145.187
0.587                   -1.81116        -167.853         -50.5655         13.0615         -50.4723         12.4643        -0.016789         145.112
0.588                   -1.83969         -168.44         -50.4693         10.8447         -50.3803         10.2611       -0.0169651         145.037
0.589                    -1.8682        -169.033         -50.3743         8.63246         -50.2895         8.06461       -0.0171431         144.962
0.59                    -1.89672        -169.633         -50.2803         6.42508         -50.1999         5.87507        -0.017323         144.887
0.591                   -1.92531        -170.239         -50.1873         4.22276         -50.1114         3.69258       -0.0175049         144.811
0.592                   -1.95401        -170.852         -50.0952          2.0257         -50.0239         1.51724       -0.0176887         144.736
0.593                   -1.98287        -171.473          -50.004       -0.165945         -49.9373       -0.650896       -0.0178746          144.66
0.594                   -2.01195        -172.102         -49.9136        -2.35203         -49.8516         -2.8118       -0.0180624         144.584
0.595                   -2.04131        -172.738          -49.824        -4.53243         -49.7665        -4.96548       -0.0182522         144.508
0.596                   -2.07099        -173.382         -49.7351        -6.70706         -49.6822        -7.11198       -0.0184441         144.432
0.597                   -2.10108        -174.034         -49.6468        -8.87586         -49.5984        -9.25137       -0.0186379         144.355
0.598                   -2.13162        -174.695         -49.5591        -11.0388         -49.5151        -11.3838       -0.0188338         144.279
0.599                   -2.16268        -175.365         -49.4719        -13.1958         -49.4323        -13.5093       -0.0190318         144.202
0.6                     -2.19433        -176.044         -49.3853        -15.3469         -49.3498        -15.6281       -0.0192319         144.125
0.601                   -2.22665        -176.731          -49.299        -17.4922         -49.2676        -17.7404       -0.0194341         144.048
0.602                   -2.25969        -177.428         -49.2132        -19.6316         -49.1856        -19.8464       -0.0196385          143.97
0.603                   -2.29355        -178.133         -49.1276        -21.7652         -49.1038        -21.9462       -0.0198451         143.893
0.604                   -2.32828        -178.848         -49.0424        -23.8931         -49.0221        -24.0403       -0.0200539         143.815
0.605                   -2.36398        -179.573         -48.9574        -26.0155         -48.9405        -26.1287       -0.0202649         143.737
0.606                   -2.40071         179.694         -48.8727        -28.1324         -48.8589        -28.2119       -0.0204783         143.659
0.607                   -2.43856         178.951         -48.7881        -30.2439         -48.7772          -30.29       -0.0206941          143.58
0.608                   -2.47761         178.198         -48.7037        -32.3502         -48.6954        -32.3634       -0.0209123         143.502
0.609                   -2.51795         177.436         -48.6194        -34.4515         -48.6136        -34.4325       -0.0211329         143.423
0.61                    -2.55966         176.665         -48.5351        -36.5479         -48.5316        -36.4974       -0.0213561         143.344
0.611                   -2.60283         175.885          -48.451        -38.6396         -48.4494        -38.5587       -0.0215819         143.264
0.612                   -2.64755         175.095         -48.3669        -40.7268          -48.367        -40.6165       -0.0218103         143.185
0.613                   -2.69391         174.296         -48.2828        -42.8097         -48.2844        -42.6712       -0.0220414         143.105
0.614                     -2.742         173.489         -48.1987        -44.8884         -48.2016        -44.7232       -0.0222754         143.025
0.615                   -2.79191         172.672         -48.1146        -46.9633         -48.1185        -46.7728       -0.0225122         142.945
0.616                   -2.84375         171.848         -48.0305        -49.0345         -48.0352        -48.8203        -0.022752         142.865
0.617                    -2.8976         171.015         -47.9463        -51.1022         -47.9517         -50.866       -0.0229948         142.784
0.618                   -2.95356         170.174         -47.8622        -53.1667          -47.868        -52.9103       -0.0232408         142.703
0.619                   -3.01174         169.325          -47.778        -55.2281          -47.784        -54.9534       -0.0234899         142.622
0.62                    -3.07221          168.47         -47.6938        -57.2867         -47.6998        -56.9957       -0.0237423         142.541
0.621                   -3.13509         167.607         -47.6096        -59.3427         -47.6155        -59.0374       -0.0239981         142.459
0.622                   -3.20047         166.738         -47.5254        -61.3963          -47.531        -61.0788       -0.0242574         142.378
0.623                   -3.26844         165.863         -47.4412        -63.4478         -47.4463          -63.12       -0.0245202         142.295
0.624                   -3.33909         164.983          -47.357        -65.4973         -47.3616        -65.1615       -0.0247867         142.213
0.625                   -3.41253         164.099         -47.2728        -67.5449         -47.2768        -67.2033       -0.0250569         142.131
0.626                   -3.48884          163.21         -47.1888         -69.591         -47.1919        -69.2456        -0.025331         142.048
0.627                   -3.56811         162.317         -47.1047        -71.6357         -47.1071        -71.2886       -0.0256091         141.965
0.628                   -3.65042         161.423         -47.0208        -73.6791         -47.0223        -73.3324       -0.0258912         141.881
0.629                   -3.73585         160.526         -46.9371        -75.7213         -46.9376        -75.3772       -0.0261775         141.798
0.63                    -3.82449         159.628         -46.8534        -77.7626          -46.853         -77.423        -0.026468         141.714
0.631                    -3.9164          158.73           -46.77        -79.8031         -46.7686        -79.4698       -0.0267629         141.629
0.632                   -4.01164         157.833         -46.6868        -81.8428         -46.6845        -81.5177       -0.0270622         141.545
0.633                   -4.11028         156.938         -46.6039        -83.8818         -46.6007        -83.5667       -0.0273661          141.46
0.634                   -4.21236         156.045         -46.5212        -85.9202         -46.5172        -85.6166       -0.0276748         141.375
0.635                   -4.31793         155.157         -46.4389        -87.9581          -46.434        -87.6676       -0.0279882          141.29
0.636                   -4.42702         154.274         -46.3569        -89.9955         -46.3514        -89.7193       -0.0283065         141.204
0.637                   -4.53965         153.397         -46.2754        -92.0323         -46.2692        -91.7718       -0.0286298         141.118
0.638                   -4.65583         152.527         -46.1942        -94.0686         -46.1876        -93.8247       -0.0289582         141.032
0.639                   -4.77558         151.667         -46.1136        -96.1044         -46.1065         -95.878       -0.0292919         140.946
0.64                    -4.89887         150.816         -46.0334        -98.1395         -46.0261        -97.9314       -0.0296309         140.859
0.641                   -5.02567         149.977         -45.9538        -100.174         -45.9463        -99.9847       -0.0299754         140.771
0.642                   -5.15596          149.15         -45.8748        -102.207         -45.8673        -102.037       -0.0303254         140.684
0.643                   -5.28967         148.338         -45.7964         -104.24          -45.789        -104.089       -0.0306812         140.596
0.644                   -5.42674         147.541         -45.7186        -106.272         -45.7115         -106.14       -0.0310428         140.508
0.645                   -5.56708         146.761         -45.6415        -108.302         -45.6348         -108.19       -0.0314103          140.42
0.646                   -5.71059         145.999         -45.5651        -110.331         -45.5589        -110.238       -0.0317839         140.331
0.647                   -5.85715         145.257         -45.4894        -112.358         -45.4838        -112.283       -0.0321637         140.242
0.648                   -6.00662         144.536         -45.4145        -114.383         -45.4096        -114.326       -0.0325498         140.152
0.649                   -6.15886         143.836         -45.3403        -116.406         -45.3363        -116.366       -0.0329423         140.062
0.65                    -6.31368          143.16         -45.2669        -118.426         -45.2638        -118.402       -0.0333415         139.972
0.651                   -6.47091         142.508         -45.1943        -120.444         -45.1922        -120.435       -0.0337473         139.881
0.652                   -6.63033         141.882         -45.1224        -122.459         -45.1215        -122.463         -0.03416         139.791
0.653                   -6.79173         141.282         -45.0513         -124.47         -45.0515        -124.487       -0.0345797         139.699
0.654                   -6.95486          140.71         -44.9811        -126.478         -44.9824        -126.505       -0.0350065         139.608
0.655                   -7.11948         140.166         -44.9116        -128.481          -44.914        -128.519       -0.0354406         139.516
0.656                   -7.28531          139.65         -44.8428         -130.48         -44.8465        -130.526       -0.0358821         139.423
0.657                   -7.45207         139.164         -44.7748        -132.475         -44.7796        -132.527       -0.0363312          139.33
0.658                   -7.61949         138.708         -44.7075        -134.464         -44.7134        -134.521        -0.036788         139.237
0.659                   -7.78724         138.282         -44.6409        -136.449         -44.6478        -136.509       -0.0372527         139.143
0.66                    -7.95503         137.885         -44.5749        -138.427         -44.5827        -138.489       -0.0377255         139.049
0.661                   -8.12254         137.519         -44.5096          -140.4         -44.5182        -140.462       -0.0382065         138.955
0.662                   -8.28947         137.182         -44.4448        -142.366         -44.4542        -142.428       -0.0386959          138.86
0.663                   -8.45549         136.874         -44.3805        -144.326         -44.3905        -144.385       -0.0391938         138.765
0.664                    -8.6203         136.594         -44.3167        -146.278         -44.3272        -146.334       -0.0397005         138.669
0.665                   -8.78359         136.342         -44.2533        -148.224         -44.2641        -148.275       -0.0402161         138.573
0.666                   -8.94507         136.116         -44.1902        -150.163         -44.2012        -150.208       -0.0407409         138.476
0.667                   -9.10447         135.914         -44.1274        -152.094         -44.1384        -152.132       -0.0412749         138.379
0.668                   -9.26152         135.737         -44.0649        -154.017         -44.0757        -154.048       -0.0418185         138.282
0.669                   -9.41598         135.581         -44.0024        -155.932         -44.0129        -155.956       -0.0423718         138.184
0.67                    -9.56765         135.445         -43.9401         -157.84         -43.9501        -157.854        -0.042935         138.085
0.671                   -9.71631         135.327         -43.8777         -159.74          -43.887        -159.745       -0.0435083         137.986
0.672                   -9.86183         135.225         -43.8152        -161.631         -43.8237        -161.627        -0.044092         137.887
0.673                   -10.0041         135.137         -43.7526        -163.515         -43.7601        -163.501       -0.0446863         137.787
0.674                   -10.1429          135.06         -43.6897         -165.39         -43.6961        -165.367       -0.0452914         137.686
0.675                   -10.2784         134.992         -43.6265        -167.258         -43.6316        -167.225       -0.0459076         137.585
0.676                   -10.4104          134.93         -43.5628        -169.117         -43.5665        -169.076       -0.0465352         137.484
0.677                    -10.539         134.873         -43.4987        -170.969         -43.5009        -170.919       -0.0471743         137.382
0.678                   -10.6642         134.817          -43.434        -172.813         -43.4346        -172.754       -0.0478252         137.279
0.679                   -10.7862         134.761         -43.3687         -174.65         -43.3676        -174.583       -0.0484883         137.176
0.68                     -10.905         134.701         -43.3027        -176.479         -43.2999        -176.406       -0.0491637         137.072
0.681                   -11.0208         134.637         -43.2359        -178.302         -43.2312        -178.222       -0.0498519         136.968
0.682                   -11.1339         134.565         -43.1682         179.882         -43.1617         179.968        -0.050553         136.863
0.683                   -11.2445         134.485         -43.0996         178.073         -43.0913         178.164       -0.0512674         136.758
0.684                   -11.3527         134.393           -43.03         176.269         -43.0199         176.365       -0.0519955         136.652
0.685                    -11.459         134.289         -42.9594         174.472         -42.9475         174.571       -0.0527375         136.546
0.686                   -11.5636         134.171         -42.8876          172.68          -42.874         172.781       -0.0534938         136.438
0.687                   -11.6668         134.038         -42.8147         170.893         -42.7994         170.995       -0.0542648          136.33
0.688                   -11.7691         133.889         -42.7407          169.11         -42.7237         169.214       -0.0550507         136.222
0.689                   -11.8707         133.723         -42.6654         167.331         -42.6468         167.435        -0.055852         136.113
0.69                     -11.972          133.54         -42.5888         165.557         -42.5688          165.66       -0.0566691         136.003
0.691                   -12.0735          133.34         -42.5109         163.786         -42.4896         163.887       -0.0575023         135.893
0.692                   -12.1755         133.121         -42.4316         162.017         -42.4091         162.116       -0.0583521         135.782
0.693                   -12.2783         132.885         -42.3511         160.251         -42.3275         160.347       -0.0592188          135.67
0.694                   -12.3825         132.631         -42.2691         158.487         -42.2446          158.58       -0.0601028         135.557
0.695                   -12.4883         132.361         -42.1857         156.725         -42.1605         156.813       -0.0610046         135.444
0.696                   -12.5962         132.075          -42.101         154.963         -42.0751         155.047       -0.0619246          135.33
0.697                   -12.7066         131.774         -42.0149         153.203         -41.9885         153.282       -0.0628632         135.215