! TOUCHSTONE file generated by CST MICROWAVE STUDIO
! Date and time: Fri Oct 30 07:54:16 2020
! Project name: Scenario_1_Circular_Tissue_out_of_Line.cst
! Parameters = {dy1=-137.908; L_HA=400; MT=2.54; Rad_Dielectric=30; Rad_Lower=7.3; Rad_Upper=30; a_HA=580; a_WG=246; b_HA=500; b_WG=121; c_HA=0; c_WG=187; d_feed=85; dx1=520; h_feed=15; h_lower=18; h_upper=40}
! Header version: 2018
! Port assignment regex: !\s*Touchstone port\s*([0-9]+)\s*=\s*(CST MWS port|CST DS port)\s*([0-9]+|Zmin|Zmax)\s*\(\"(.*)\"\)(\s*mode\s*([0-9]+))?.*
! Touchstone port assignment:
! Touchstone port 1 = CST MWS port 1 ("")
! Touchstone port 2 = CST MWS port 2 ("")
# GHz S DB R 50
0.5                    -0.133898        -122.347          -61.751        -63.7882          -61.751        -63.7882      -0.00727532         151.143
0.501                  -0.139879        -122.817         -61.5536        -65.2204         -61.5536        -65.2203      -0.00733433         151.078
0.502                  -0.146199        -123.287         -61.3554        -66.6711         -61.3553        -66.6709      -0.00739444         151.012
0.503                  -0.152853        -123.757         -61.1563        -68.1405         -61.1563        -68.1402      -0.00745565         150.947
0.504                   -0.15984        -124.227         -60.9566        -69.6291         -60.9566        -69.6287      -0.00751801         150.882
0.505                  -0.167155        -124.697         -60.7563        -71.1372         -60.7562        -71.1367      -0.00758154         150.816
0.506                  -0.174796        -125.167         -60.5554        -72.6651         -60.5553        -72.6645      -0.00764626          150.75
0.507                  -0.182759        -125.637         -60.3541        -74.2131          -60.354        -74.2125       -0.0077122         150.685
0.508                   -0.19104        -126.107         -60.1525        -75.7815         -60.1523        -75.7808      -0.00777939         150.619
0.509                  -0.199635        -126.577         -59.9505        -77.3706         -59.9504        -77.3699      -0.00784785         150.553
0.51                   -0.208541        -127.047         -59.7485        -78.9807         -59.7483        -78.9799      -0.00791761         150.487
0.511                  -0.217753        -127.518         -59.5464         -80.612         -59.5462        -80.6111       -0.0079887         150.421
0.512                  -0.227267        -127.988         -59.3444        -82.2646         -59.3442        -82.2637      -0.00806113         150.355
0.513                  -0.237079        -128.459         -59.1426        -83.9388         -59.1424        -83.9378      -0.00813494         150.289
0.514                  -0.247184         -128.93         -58.9411        -85.6347         -58.9409        -85.6336      -0.00821015         150.223
0.515                  -0.257577        -129.401           -58.74        -87.3523         -58.7399        -87.3512      -0.00828677         150.157
0.516                  -0.268253        -129.872         -58.5396        -89.0918         -58.5394        -89.0906      -0.00836484          150.09
0.517                  -0.279208        -130.344         -58.3399        -90.8531         -58.3397        -90.8519      -0.00844436         150.024
0.518                  -0.290437        -130.815         -58.1411        -92.6362         -58.1409         -92.635      -0.00852536         149.957
0.519                  -0.301934        -131.288         -57.9433        -94.4409         -57.9431        -94.4397      -0.00860786         149.891
0.52                   -0.313694        -131.761         -57.7467        -96.2672         -57.7465        -96.2659      -0.00869187         149.824
0.521                  -0.325713        -132.234         -57.5514        -98.1148         -57.5512        -98.1135       -0.0087774         149.757
0.522                  -0.337984        -132.707         -57.3576        -99.9833         -57.3574         -99.982      -0.00886446          149.69
0.523                  -0.350503        -133.182         -57.1654        -101.873         -57.1653        -101.871      -0.00895307         149.623
0.524                  -0.363264        -133.657         -56.9751        -103.782         -56.9749        -103.781      -0.00904323         149.556
0.525                  -0.376261        -134.132         -56.7866        -105.711         -56.7864         -105.71      -0.00913494         149.489
0.526                  -0.389489        -134.608         -56.6002        -107.659         -56.6001        -107.658       -0.0092282         149.422
0.527                  -0.402943        -135.085         -56.4161        -109.626         -56.4159        -109.625      -0.00932302         149.355
0.528                  -0.416616        -135.563         -56.2344        -111.611         -56.2342        -111.609      -0.00941939         149.287
0.529                  -0.430504        -136.041         -56.0551        -113.612          -56.055        -113.611       -0.0095173          149.22
0.53                     -0.4446         -136.52         -55.8785         -115.63         -55.8784        -115.629      -0.00961674         149.152
0.531                  -0.458901        -137.001         -55.7047        -117.663         -55.7046        -117.662      -0.00971769         149.085
0.532                  -0.473399        -137.482         -55.5338         -119.71         -55.5337        -119.709      -0.00982015         149.017
0.533                  -0.488089        -137.964         -55.3659         -121.77         -55.3657        -121.769      -0.00992408         148.949
0.534                  -0.502967        -138.448          -55.201        -123.843         -55.2009        -123.841       -0.0100295         148.881
0.535                  -0.518027        -138.933         -55.0393        -125.926         -55.0392        -125.925       -0.0101363         148.813
0.536                  -0.533264        -139.418         -54.8809        -128.019         -54.8808        -128.017       -0.0102445         148.745
0.537                  -0.548673        -139.906         -54.7257         -130.12         -54.7257        -130.119       -0.0103541         148.677
0.538                  -0.564248        -140.394         -54.5739        -132.228         -54.5739        -132.227        -0.010465         148.609
0.539                  -0.579987        -140.884         -54.4255        -134.342         -54.4254        -134.341       -0.0105772          148.54
0.54                   -0.595883        -141.376         -54.2805        -136.461         -54.2804         -136.46       -0.0106906         148.472
0.541                  -0.611932        -141.869         -54.1388        -138.583         -54.1388        -138.582       -0.0108053         148.403
0.542                  -0.628131        -142.364         -54.0005        -140.706         -54.0005        -140.705       -0.0109211         148.334
0.543                  -0.644476        -142.861         -53.8656        -142.831         -53.8656         -142.83       -0.0110381         148.266
0.544                  -0.660963        -143.359         -53.7339        -144.954         -53.7339        -144.953       -0.0111561         148.197
0.545                  -0.677588         -143.86         -53.6055        -147.076         -53.6055        -147.075       -0.0112752         148.128
0.546                  -0.694348        -144.362         -53.4803        -149.195         -53.4803        -149.194       -0.0113952         148.059
0.547                  -0.711242        -144.867         -53.3582         -151.31         -53.3582        -151.309       -0.0115162          147.99
0.548                  -0.728267        -145.374          -53.239        -153.419         -53.2391        -153.418       -0.0116381          147.92
0.549                   -0.74542        -145.883         -53.1228        -155.522         -53.1229        -155.521       -0.0117608         147.851
0.55                   -0.762701        -146.394         -53.0093        -157.617         -53.0094        -157.617       -0.0118843         147.781
0.551                  -0.780108        -146.908         -52.8985        -159.705         -52.8986        -159.704       -0.0120085         147.712
0.552                  -0.797641        -147.425         -52.7903        -161.783         -52.7903        -161.783       -0.0121335         147.642
0.553                    -0.8153        -147.945         -52.6844        -163.852         -52.6845        -163.852       -0.0122592         147.572
0.554                  -0.833086        -148.467         -52.5807        -165.911         -52.5808         -165.91       -0.0123855         147.502
0.555                  -0.851001        -148.992         -52.4792        -167.959         -52.4793        -167.958       -0.0125124         147.432
0.556                  -0.869046        -149.521         -52.3796        -169.995         -52.3797        -169.994       -0.0126399         147.362
0.557                  -0.887224        -150.052         -52.2818        -172.019          -52.282        -172.019        -0.012768         147.292
0.558                  -0.905538        -150.587         -52.1857        -174.032         -52.1859        -174.031       -0.0128966         147.222
0.559                  -0.923994        -151.125         -52.0911        -176.032         -52.0913        -176.031       -0.0130258         147.151
0.56                   -0.942596        -151.668         -51.9979        -178.019          -51.998        -178.018       -0.0131555         147.081
0.561                  -0.961351        -152.213         -51.9058        -179.994          -51.906        -179.993       -0.0132857          147.01
0.562                  -0.980267        -152.763         -51.8148         178.045          -51.815         178.045       -0.0134164         146.939
0.563                  -0.999351        -153.317         -51.7248         176.095          -51.725         176.096       -0.0135477         146.868
0.564                   -1.01861        -153.874         -51.6355         174.159         -51.6357         174.159       -0.0136795         146.797
0.565                   -1.03807        -154.437         -51.5468         172.235         -51.5471         172.235       -0.0138118         146.726
0.566                   -1.05772        -155.003         -51.4587         170.323          -51.459         170.323       -0.0139447         146.654
0.567                   -1.07759        -155.575          -51.371         168.423         -51.3713         168.423       -0.0140782         146.583
0.568                   -1.09769        -156.151         -51.2836         166.535         -51.2839         166.535       -0.0142124         146.511
0.569                   -1.11804        -156.732         -51.1964         164.659         -51.1966         164.659       -0.0143471          146.44
0.57                    -1.13865        -157.318         -51.1092         162.793         -51.1095         162.793       -0.0144825         146.368
0.571                   -1.15955        -157.909          -51.022         160.938         -51.0223         160.939       -0.0146187         146.296
0.572                   -1.18076        -158.506         -50.9347         159.094         -50.9349         159.094       -0.0147556         146.223
0.573                   -1.20231        -159.109         -50.8471         157.259         -50.8474          157.26       -0.0148933         146.151
0.574                   -1.22421        -159.717         -50.7593         155.434         -50.7595         155.434       -0.0150319         146.079
0.575                    -1.2465        -160.331         -50.6711         153.617         -50.6714         153.618       -0.0151713         146.006
0.576                   -1.26921        -160.951         -50.5824         151.809         -50.5827          151.81       -0.0153117         145.933
0.577                   -1.29237        -161.577         -50.4933         150.009         -50.4936         150.009       -0.0154532         145.861
0.578                   -1.31602         -162.21         -50.4037         148.216         -50.4039         148.216       -0.0155956         145.788
0.579                    -1.3402         -162.85         -50.3134         146.429         -50.3137          146.43       -0.0157392         145.714
0.58                    -1.36494        -163.496         -50.2225         144.649         -50.2228          144.65        -0.015884         145.641
0.581                   -1.39029        -164.148          -50.131         142.875         -50.1312         142.875         -0.01603         145.568
0.582                   -1.41631        -164.808         -50.0387         141.105          -50.039         141.105       -0.0161774         145.494
0.583                   -1.44303        -165.475         -49.9457          139.34          -49.946         139.341        -0.016326          145.42
0.584                    -1.4705        -166.149          -49.852         137.579         -49.8522         137.579       -0.0164761         145.346
0.585                    -1.4988         -166.83         -49.7575         135.821         -49.7577         135.822       -0.0166277         145.272
0.586                   -1.52797        -167.518         -49.6622         134.067         -49.6624         134.067       -0.0167809         145.198
0.587                   -1.55807        -168.214         -49.5662         132.314         -49.5664         132.315       -0.0169357         145.124
0.588                   -1.58917        -168.917         -49.4694         130.564         -49.4696         130.564       -0.0170921         145.049
0.589                   -1.62133        -169.627         -49.3718         128.814          -49.372         128.815       -0.0172503         144.974
0.59                    -1.65463        -170.345         -49.2735         127.066         -49.2737         127.066       -0.0174103         144.899
0.591                   -1.68914         -171.07         -49.1744         125.317         -49.1746         125.318       -0.0175722         144.824
0.592                   -1.72492        -171.802         -49.0747         123.569         -49.0749          123.57       -0.0177361         144.749
0.593                   -1.76206        -172.541         -48.9742          121.82         -48.9744          121.82       -0.0179019         144.674
0.594                   -1.80064        -173.287         -48.8731          120.07         -48.8733          120.07       -0.0180698         144.598
0.595                   -1.84072         -174.04         -48.7714         118.318         -48.7715         118.319       -0.0182399         144.522
0.596                    -1.8824        -174.799          -48.669         116.565         -48.6692         116.565       -0.0184121         144.446
0.597                   -1.92574        -175.564         -48.5661         114.809         -48.5663         114.809       -0.0185867          144.37
0.598                   -1.97084        -176.336         -48.4627          113.05         -48.4629         113.051       -0.0187635         144.294
0.599                   -2.01777        -177.112         -48.3589         111.289          -48.359         111.289       -0.0189428         144.217
0.6                      -2.0666        -177.894         -48.2546         109.524         -48.2547         109.525       -0.0191245          144.14
0.601                   -2.11741        -178.681         -48.1499         107.756         -48.1501         107.756       -0.0193087         144.064
0.602                   -2.17027        -179.471          -48.045         105.984         -48.0451         105.984       -0.0194955         143.986
0.603                   -2.22526         179.735         -47.9398         104.207         -47.9399         104.208       -0.0196849         143.909
0.604                   -2.28242         178.938         -47.8344         102.427         -47.8344         102.427       -0.0198771         143.832
0.605                   -2.34183         178.138         -47.7288         100.642         -47.7289         100.642        -0.020072         143.754
0.606                   -2.40352         177.338         -47.6232         98.8523         -47.6232         98.8526       -0.0202698         143.676
0.607                   -2.46754         176.536         -47.5176          97.058         -47.5176         97.0582       -0.0204704         143.598
0.608                   -2.53393         175.735          -47.412         95.2589          -47.412          95.259        -0.020674          143.52
0.609                   -2.60271         174.935         -47.3065         93.4548         -47.3065          93.455       -0.0208807         143.441
0.61                     -2.6739         174.136         -47.2012         91.6459         -47.2012          91.646       -0.0210904         143.363
0.611                   -2.74749          173.34         -47.0961         89.8321         -47.0961         89.8321       -0.0213032         143.284
0.612                   -2.82348         172.547         -46.9914         88.0134         -46.9914         88.0134       -0.0215193         143.205
0.613                   -2.90186         171.759          -46.887           86.19          -46.887         86.1899       -0.0217386         143.125
0.614                   -2.98258         170.977          -46.783         84.3618          -46.783         84.3617       -0.0219613         143.046
0.615                    -3.0656           170.2         -46.6795         82.5291         -46.6795         82.5289       -0.0221874         142.966
0.616                   -3.15087         169.431         -46.5766         80.6919         -46.5766         80.6917       -0.0224169         142.886
0.617                   -3.23832          168.67         -46.4743         78.8506         -46.4742         78.8503         -0.02265         142.806
0.618                   -3.32786         167.918         -46.3726         77.0052         -46.3725         77.0049       -0.0228867         142.725
0.619                    -3.4194         167.175         -46.2716         75.1561         -46.2716         75.1557        -0.023127         142.644
0.62                    -3.51283         166.442         -46.1714         73.3034         -46.1714          73.303        -0.023371         142.564
0.621                   -3.60804         165.721          -46.072         71.4476          -46.072         71.4471       -0.0236189         142.482
0.622                   -3.70491         165.011         -45.9735         69.5888         -45.9734         69.5883       -0.0238706         142.401
0.623                   -3.80329         164.314         -45.8758         67.7275         -45.8757          67.727       -0.0241262         142.319
0.624                   -3.90306         163.628          -45.779          65.864         -45.7789         65.8634       -0.0243858         142.237
0.625                   -4.00406         162.956         -45.6832         63.9987         -45.6831         63.9981       -0.0246494         142.155
0.626                   -4.10615         162.297         -45.5883         62.1319         -45.5883         62.1312       -0.0249172         142.073
0.627                   -4.20918         161.651         -45.4945          60.264         -45.4944         60.2633       -0.0251892          141.99
0.628                   -4.31299         161.018         -45.4016         58.3955         -45.4016         58.3948       -0.0254654         141.907
0.629                   -4.41742         160.399         -45.3098         56.5267         -45.3098          56.526        -0.025746         141.824
0.63                    -4.52234         159.793          -45.219         54.6581          -45.219         54.6574        -0.026031         141.741
0.631                   -4.62759           159.2         -45.1292         52.7901         -45.1292         52.7893       -0.0263205         141.657
0.632                   -4.73303         158.619         -45.0405         50.9231         -45.0404         50.9223       -0.0266146         141.573
0.633                   -4.83853         158.051         -44.9528         49.0575         -44.9527         49.0567       -0.0269133         141.489
0.634                   -4.94395         157.494         -44.8661         47.1938          -44.866          47.193       -0.0272167         141.404
0.635                   -5.04918         156.949         -44.7803         45.3322         -44.7803         45.3315       -0.0275248          141.32
0.636                   -5.15411         156.414         -44.6956         43.4733         -44.6955         43.4726       -0.0278379         141.235
0.637                   -5.25863         155.889         -44.6117         41.6174         -44.6117         41.6167       -0.0281559         141.149
0.638                   -5.36265         155.374         -44.5288         39.7649         -44.5288         39.7642       -0.0284789         141.064
0.639                   -5.46609         154.867         -44.4468         37.9161         -44.4468         37.9154       -0.0288071         140.978
0.64                    -5.56889         154.368         -44.3656         36.0714         -44.3656         36.0707       -0.0291404         140.891
0.641                   -5.67099         153.875         -44.2853          34.231         -44.2852         34.2303        -0.029479         140.805
0.642                   -5.77233         153.389         -44.2056         32.3952         -44.2056         32.3946        -0.029823         140.718
0.643                    -5.8729         152.908         -44.1267         30.5644         -44.1267         30.5639       -0.0301724         140.631
0.644                   -5.97266         152.431         -44.0485         28.7388         -44.0485         28.7383       -0.0305273         140.543
0.645                    -6.0716         151.958         -43.9709         26.9185         -43.9708         26.9181       -0.0308879         140.456
0.646                   -6.16972         151.488         -43.8938         25.1039         -43.8938         25.1035       -0.0312542         140.368
0.647                   -6.26704         151.019         -43.8172          23.295         -43.8172         23.2946       -0.0316263         140.279
0.648                   -6.36356         150.551         -43.7411          21.492         -43.7411         21.4917       -0.0320044          140.19
0.649                   -6.45932         150.083         -43.6654          19.695         -43.6654         19.6948       -0.0323884         140.101
0.65                    -6.55436         149.615           -43.59         17.9042           -43.59          17.904       -0.0327785         140.012
0.651                   -6.64872         149.145         -43.5149         16.1196         -43.5149         16.1195       -0.0331749         139.922
0.652                   -6.74246         148.673         -43.4401         14.3412           -43.44         14.3411       -0.0335775         139.832
0.653                   -6.83564         148.198         -43.3654         12.5691         -43.3653         12.5691       -0.0339866         139.741
0.654                   -6.92833          147.72         -43.2908         10.8032         -43.2907         10.8033       -0.0344022         139.651
0.655                    -7.0206         147.238         -43.2162         9.04361         -43.2162         9.04368       -0.0348244         139.559
0.656                   -7.11253          146.75         -43.1417         7.29016         -43.1416         7.29028       -0.0352534         139.468
0.657                   -7.20422         146.257         -43.0671         5.54281          -43.067         5.54298       -0.0356892         139.376
0.658                   -7.29576         145.759         -42.9923         3.80147         -42.9923         3.80169        -0.036132         139.283
0.659                   -7.38724         145.254         -42.9174         2.06602         -42.9174         2.06629        -0.036582         139.191
0.66                    -7.47877         144.742         -42.8423        0.336329         -42.8423        0.336647       -0.0370391         139.098
0.661                   -7.57046         144.223          -42.767        -1.38775         -42.7669        -1.38739       -0.0375036         139.004
0.662                   -7.66242         143.695         -42.6913         -3.1064         -42.6912          -3.106       -0.0379756          138.91
0.663                   -7.75476          143.16         -42.6153         -4.8198         -42.6152        -4.81937       -0.0384552         138.816
0.664                   -7.84761         142.617         -42.5389        -6.52815         -42.5388        -6.52768       -0.0389426         138.721
0.665                   -7.94109         142.064          -42.462        -8.23166         -42.4619        -8.23117       -0.0394378         138.626
0.666                   -8.03534         141.503         -42.3847        -9.93057         -42.3846        -9.93006       -0.0399412          138.53
0.667                   -8.13048         140.932         -42.3069        -11.6251         -42.3068        -11.6246       -0.0404527         138.434
0.668                   -8.22665         140.352         -42.2285        -13.3155         -42.2284         -13.315       -0.0409726         138.338
0.669                     -8.324         139.762         -42.1496        -15.0021         -42.1495        -15.0016        -0.041501         138.241
0.67                    -8.42267         139.163         -42.0701        -16.6851           -42.07        -16.6845        -0.042038         138.144
0.671                   -8.52281         138.553           -41.99        -18.3648         -41.9898        -18.3642       -0.0425839         138.046
0.672                   -8.62458         137.934         -41.9092        -20.0414         -41.9091        -20.0408       -0.0431387         137.947
0.673                   -8.72814         137.305         -41.8278        -21.7153         -41.8276        -21.7147       -0.0437026         137.849
0.674                   -8.83365         136.666         -41.7457        -23.3867         -41.7455        -23.3861       -0.0442757         137.749
0.675                   -8.94129         136.017         -41.6629        -25.0559         -41.6627        -25.0554       -0.0448579          137.65
0.676                   -9.05123         135.359         -41.5794        -26.7233         -41.5793        -26.7227       -0.0454494         137.549
0.677                   -9.16366         134.691         -41.4952         -28.389         -41.4951        -28.3885       -0.0460501         137.449
0.678                   -9.27877         134.014         -41.4103        -30.0535         -41.4102         -30.053         -0.04666         137.347
0.679                   -9.39674         133.327         -41.3247         -31.717         -41.3246        -31.7165       -0.0472791         137.245
0.68                     -9.5178         132.632         -41.2384        -33.3797         -41.2383        -33.3793       -0.0479076         137.143
0.681                   -9.64213         131.929         -41.1514         -35.042         -41.1512        -35.0416       -0.0485459          137.04
0.682                   -9.76998         131.218         -41.0637        -36.7042         -41.0635        -36.7038       -0.0491947         136.937
0.683                   -9.90155         130.499         -40.9753        -38.3664         -40.9751        -38.3661       -0.0498546         136.833
0.684                   -10.0371         129.774         -40.8862        -40.0291         -40.8861        -40.0287       -0.0505262         136.728
0.685                   -10.1768         129.042         -40.7965        -41.6924         -40.7963        -41.6921       -0.0512102         136.623
0.686                   -10.3211         128.306         -40.7061        -43.3566         -40.7059        -43.3563        -0.051907         136.517
0.687                     -10.47         127.565          -40.615        -45.0219         -40.6149        -45.0216       -0.0526167         136.411
0.688                   -10.6239         126.821         -40.5234        -46.6886         -40.5233        -46.6884       -0.0533396         136.304
0.689                   -10.7832         126.075         -40.4312        -48.3569          -40.431        -48.3567        -0.054076         136.196
0.69                     -10.948         125.328         -40.3384        -50.0269         -40.3382        -50.0268        -0.054826         136.088
0.691                   -11.1187         124.582          -40.245         -51.699         -40.2449        -51.6988         -0.05559         135.979
0.692                   -11.2956         123.838         -40.1512        -53.3732         -40.1511        -53.3731       -0.0563681          135.87
0.693                   -11.4791         123.098         -40.0569        -55.0498         -40.0568        -55.0497       -0.0571608          135.76
0.694                   -11.6694         122.365         -39.9621        -56.7288          -39.962        -56.7287       -0.0579683         135.649
0.695                   -11.8669          121.64         -39.8669        -58.4105         -39.8668        -58.4104        -0.058791         135.537
0.696                   -12.0721         120.926         -39.7713        -60.0949         -39.7712        -60.0948       -0.0596293         135.425
0.697                   -12.2852         120.227         -39.6754        -61.7821         -39.6753        -61.7821       -0.0604836         135.312