! TOUCHSTONE file generated by CST MICROWAVE STUDIO
! Date and time: Mon Oct 26 12:26:23 2020
! Project name: Scenario_1_Circular_Tissue_out_of_Line.cst
! Parameters = {dy1=-137.908; L_HA=400; MT=2.54; Rad_Dielectric=30; Rad_Lower=7.3; Rad_Upper=30; a_HA=580; a_WG=246; b_HA=500; b_WG=121; c_HA=0; c_WG=187; d_feed=85; dx1=866; h_feed=15; h_lower=18; h_upper=40}
! Header version: 2018
! Port assignment regex: !\s*Touchstone port\s*([0-9]+)\s*=\s*(CST MWS port|CST DS port)\s*([0-9]+|Zmin|Zmax)\s*\(\"(.*)\"\)(\s*mode\s*([0-9]+))?.*
! Touchstone port assignment:
! Touchstone port 1 = CST MWS port 1 ("")
! Touchstone port 2 = CST MWS port 2 ("")
# GHz S DB R 50
0.5                    -0.143857         -122.43         -63.1415         97.7269         -63.1415         97.7269      -0.00741514         151.115
0.501                  -0.159458        -122.816         -63.3431         97.0705         -63.3365         97.0757      -0.00747455          151.05
0.502                  -0.174863        -123.204         -63.5529         96.3844         -63.5394         96.3962      -0.00753479         150.984
0.503                  -0.190074        -123.594         -63.7713         95.6659         -63.7506         95.6859      -0.00759588         150.919
0.504                  -0.205097        -123.986         -63.9989         94.9119         -63.9705         94.9418      -0.00765781         150.854
0.505                  -0.219937         -124.38         -64.2361         94.1189         -64.1997         94.1608      -0.00772061         150.788
0.506                  -0.234598        -124.777         -64.4835         93.2829         -64.4388          93.339      -0.00778426         150.722
0.507                  -0.249085        -125.175         -64.7419         92.3994         -64.6883         92.4724      -0.00784878         150.657
0.508                  -0.263404        -125.576          -65.012         91.4632          -64.949         91.5561      -0.00791417         150.591
0.509                  -0.277561        -125.979         -65.2944         90.4681         -65.2215         90.5846      -0.00798045         150.525
0.51                    -0.29156        -126.385           -65.59         89.4074         -65.5067         89.5514      -0.00804761         150.459
0.511                  -0.305409        -126.793         -65.8996         88.2727         -65.8053         88.4491      -0.00811567         150.393
0.512                  -0.319112        -127.203         -66.2243         87.0547         -66.1183         87.2691      -0.00818463         150.327
0.513                  -0.332676        -127.617          -66.565         85.7421         -66.4465         86.0011      -0.00825449         150.261
0.514                  -0.346109        -128.032         -66.9227         84.3218         -66.7911         84.6334      -0.00832528         150.195
0.515                  -0.359416        -128.451         -67.2985         82.7781         -67.1529         83.1517      -0.00839698         150.128
0.516                  -0.372605        -128.872         -67.6934         81.0923         -67.5331         81.5393      -0.00846962         150.062
0.517                  -0.385682        -129.297         -68.1086         79.2423         -67.9328         79.7761       -0.0085432         149.995
0.518                  -0.398656        -129.724         -68.5448          77.201         -68.3527         77.8383      -0.00861772         149.929
0.519                  -0.411534        -130.154         -69.0026         74.9363         -68.7937         75.6969      -0.00869319         149.862
0.52                   -0.424325        -130.587         -69.4824         72.4093         -69.2563         73.3173      -0.00876963         149.795
0.521                  -0.437035        -131.023         -69.9834         69.5733         -69.7403          70.658      -0.00884703         149.728
0.522                  -0.449674        -131.463         -70.5041         66.3729         -70.2446         67.6692      -0.00892541         149.661
0.523                  -0.462251        -131.905         -71.0408         62.7427         -70.7669         64.2921      -0.00900478         149.594
0.524                  -0.474775        -132.351         -71.5872         58.6085         -71.3026         60.4584      -0.00908514         149.527
0.525                  -0.487255        -132.801         -72.1332         53.8896         -71.8438          56.092      -0.00916651          149.46
0.526                    -0.4997        -133.254         -72.6633         48.5065         -72.3786         51.1131      -0.00924889         149.393
0.527                  -0.512121         -133.71         -73.1554         42.3955          -72.889         45.4484      -0.00933228         149.325
0.528                  -0.524528        -134.169         -73.5803         35.5314         -73.3502         39.0483      -0.00941671         149.258
0.529                  -0.536931        -134.633         -73.9035         27.9584          -73.731         31.9137      -0.00950217          149.19
0.53                   -0.549341          -135.1         -74.0902         19.8167         -73.9968          24.125      -0.00958868         149.123
0.531                   -0.56177        -135.571         -74.1136         11.3479         -74.1155         15.8622      -0.00967625         149.055
0.532                  -0.574229        -136.045          -73.963         2.86136         -74.0666         7.39513      -0.00976489         148.987
0.533                   -0.58673        -136.523         -73.6476        -5.33094         -73.8472        -0.96308      -0.00985461         148.919
0.534                  -0.599285        -137.005         -73.1936        -12.9813         -73.4738         -8.9249      -0.00994541         148.851
0.535                  -0.611906        -137.492         -72.6354        -19.9422         -72.9762        -16.2837       -0.0100373         148.783
0.536                  -0.624607        -137.982         -72.0078        -26.1637          -72.389        -22.9335       -0.0101303         148.715
0.537                    -0.6374        -138.476         -71.3403        -31.6669         -71.7449        -28.8549       -0.0102244         148.646
0.538                    -0.6503        -138.974         -70.6556         -36.514         -71.0705        -34.0869       -0.0103197         148.578
0.539                  -0.663319        -139.476         -69.9696         -40.784         -70.3853        -38.6986       -0.0104161         148.509
0.54                   -0.676473        -139.983         -69.2928        -44.5578          -69.703        -42.7692       -0.0105136         148.441
0.541                  -0.689777        -140.494         -68.6318        -47.9104         -69.0324        -46.3767       -0.0106123         148.372
0.542                  -0.703244        -141.009         -67.9901        -50.9077         -68.3788        -49.5917       -0.0107122         148.303
0.543                  -0.716891        -141.529         -67.3697         -53.606          -67.745        -52.4757       -0.0108133         148.234
0.544                  -0.730733        -142.052         -66.7711        -56.0528         -67.1326        -55.0809       -0.0109155         148.165
0.545                  -0.744786        -142.581         -66.1943        -58.2874         -66.5417         -57.451        -0.011019         148.096
0.546                  -0.759068        -143.113         -65.6386        -60.3427          -65.972        -59.6226       -0.0111237         148.026
0.547                  -0.773594        -143.651         -65.1032         -62.246          -65.423        -61.6261       -0.0112296         147.957
0.548                  -0.788382        -144.192          -64.587          -64.02         -64.8936        -63.4868       -0.0113368         147.888
0.549                  -0.803449        -144.739          -64.089        -65.6838         -64.3829        -65.2258       -0.0114452         147.818
0.55                   -0.818814         -145.29         -63.6081        -67.2533         -63.8899        -66.8609       -0.0115549         147.748
0.551                  -0.834495        -145.845         -63.1433        -68.7421         -63.4134        -68.4071       -0.0116659         147.678
0.552                  -0.850511        -146.406         -62.6936        -70.1617         -62.9525         -69.877       -0.0117782         147.608
0.553                  -0.866879         -146.97         -62.2581        -71.5218         -62.5063        -71.2813       -0.0118918         147.538
0.554                  -0.883621         -147.54         -61.8358        -72.8308         -62.0738        -72.6295       -0.0120067         147.468
0.555                  -0.900755        -148.114          -61.426        -74.0961         -61.6541        -73.9292        -0.012123         147.398
0.556                  -0.918301        -148.693         -61.0279        -75.3239         -61.2466        -75.1876       -0.0122407         147.327
0.557                   -0.93628        -149.277         -60.6408        -76.5198         -60.8505        -76.4105       -0.0123597         147.257
0.558                  -0.954711        -149.865          -60.264        -77.6885          -60.465        -77.6033       -0.0124801         147.186
0.559                  -0.973617        -150.459         -59.8971        -78.8344         -60.0897        -78.7704       -0.0126019         147.115
0.56                   -0.993018        -151.057         -59.5393        -79.9612         -59.7238        -79.9161       -0.0127252         147.044
0.561                   -1.01294        -151.659         -59.1902        -81.0724         -59.3669        -81.0439       -0.0128498         146.973
0.562                   -1.03339        -152.267         -58.8492        -82.1709         -59.0184        -82.1572        -0.012976         146.902
0.563                   -1.05441        -152.879         -58.5161        -83.2594          -58.678        -83.2588       -0.0131036         146.831
0.564                     -1.076        -153.496         -58.1903        -84.3406         -58.3452        -84.3513       -0.0132327         146.759
0.565                    -1.0982        -154.117         -57.8716        -85.4165         -58.0195        -85.4373       -0.0133633         146.688
0.566                   -1.12103        -154.743         -57.5594        -86.4894         -57.7007        -86.5188       -0.0134954         146.616
0.567                    -1.1445        -155.374         -57.2536         -87.561         -57.3884        -87.5979       -0.0136291         146.544
0.568                   -1.16865        -156.009         -56.9537        -88.6332         -57.0823        -88.6765       -0.0137644         146.472
0.569                   -1.19349        -156.649         -56.6596        -89.7076         -56.7821        -89.7563       -0.0139012           146.4
0.57                    -1.21904        -157.293          -56.371        -90.7858         -56.4875        -90.8389       -0.0140396         146.328
0.571                   -1.24534        -157.942         -56.0876        -91.8691         -56.1983        -91.9258       -0.0141797         146.256
0.572                   -1.27239        -158.595         -55.8093        -92.9589         -55.9143        -93.0184       -0.0143214         146.183
0.573                   -1.30023        -159.252         -55.5357        -94.0564         -55.6352        -94.1181       -0.0144647         146.111
0.574                   -1.32887        -159.914         -55.2667         -95.163         -55.3608        -95.2261       -0.0146098         146.038
0.575                   -1.35834        -160.579         -55.0022        -96.2798         -55.0909        -96.3436       -0.0147566         145.965
0.576                   -1.38866        -161.249         -54.7419        -97.4078         -54.8255        -97.4719       -0.0149051         145.892
0.577                   -1.41985        -161.923         -54.4857        -98.5482         -54.5643        -98.6119       -0.0150553         145.819
0.578                   -1.45193        -162.601         -54.2335        -99.7019         -54.3071        -99.7648       -0.0152073         145.745
0.579                   -1.48493        -163.282         -53.9852         -100.87         -54.0539        -100.932       -0.0153612         145.672
0.58                    -1.51886        -163.967         -53.7405        -102.053         -53.8045        -102.113       -0.0155168         145.598
0.581                   -1.55375        -164.656         -53.4994        -103.253         -53.5588        -103.311       -0.0156743         145.524
0.582                   -1.58961        -165.349         -53.2619         -104.47         -53.3166        -104.525       -0.0158337          145.45
0.583                   -1.62647        -166.044         -53.0277        -105.705          -53.078        -105.758        -0.015995         145.376
0.584                   -1.66433        -166.743         -52.7969        -106.959         -52.8428        -107.008       -0.0161582         145.302
0.585                   -1.70324        -167.446         -52.5693        -108.232         -52.6109        -108.279       -0.0163234         145.227
0.586                   -1.74319        -168.151         -52.3448        -109.527         -52.3823        -109.569       -0.0164906         145.153
0.587                    -1.7842        -168.859         -52.1235        -110.842         -52.1569        -110.881       -0.0166597         145.078
0.588                    -1.8263        -169.569         -51.9053         -112.18         -51.9346        -112.215        -0.016831         145.003
0.589                    -1.8695        -170.283           -51.69        -113.541         -51.7154        -113.572       -0.0170042         144.928
0.59                    -1.91381        -170.998         -51.4778        -114.926         -51.4993        -114.952       -0.0171796         144.852
0.591                   -1.95925        -171.716         -51.2685        -116.335         -51.2862        -116.357       -0.0173572         144.777
0.592                   -2.00583        -172.436         -51.0621        -117.769         -51.0761        -117.787       -0.0175368         144.701
0.593                   -2.05356        -173.159         -50.8586        -119.229          -50.869        -119.243       -0.0177187         144.626
0.594                   -2.10246        -173.882          -50.658        -120.716         -50.6649        -120.725       -0.0179028          144.55
0.595                   -2.15253        -174.608         -50.4603         -122.23         -50.4638        -122.235       -0.0180892         144.473
0.596                   -2.20379        -175.335         -50.2656        -123.773         -50.2657        -123.772       -0.0182779         144.397
0.597                   -2.25624        -176.063         -50.0737        -125.343         -50.0706        -125.338       -0.0184689          144.32
0.598                   -2.30988        -176.792         -49.8848        -126.943         -49.8785        -126.934       -0.0186623         144.244
0.599                   -2.36474        -177.523         -49.6988        -128.572         -49.6894        -128.559        -0.018858         144.167
0.6                      -2.4208        -178.254         -49.5158        -130.232         -49.5034        -130.214       -0.0190563          144.09
0.601                   -2.47808        -178.985         -49.3358        -131.922         -49.3206          -131.9        -0.019257         144.012
0.602                   -2.53657        -179.717         -49.1589        -133.643         -49.1409        -133.617       -0.0194602         143.935
0.603                   -2.59629          179.55         -48.9852        -135.396         -48.9644        -135.366        -0.019666         143.857
0.604                   -2.65722         178.818         -48.8146        -137.181         -48.7912        -137.147       -0.0198744         143.779
0.605                   -2.71937         178.086         -48.6472        -138.997         -48.6213         -138.96       -0.0200855         143.701
0.606                   -2.78274         177.354         -48.4831        -140.846         -48.4548        -140.806       -0.0202992         143.623
0.607                   -2.84733         176.622         -48.3224        -142.728         -48.2918        -142.684       -0.0205157         143.545
0.608                   -2.91312         175.892         -48.1651        -144.642         -48.1323        -144.595       -0.0207349         143.466
0.609                   -2.98011         175.162         -48.0113        -146.588         -47.9765        -146.539        -0.020957         143.387
0.61                    -3.04831         174.433         -47.8611        -148.567         -47.8243        -148.516        -0.021182         143.308
0.611                   -3.11769         173.705         -47.7145        -150.579         -47.6759        -150.526       -0.0214099         143.229
0.612                   -3.18825         172.978         -47.5717        -152.623         -47.5314        -152.568       -0.0216407         143.149
0.613                   -3.25998         172.253         -47.4327        -154.699         -47.3908        -154.643       -0.0218746         143.069
0.614                   -3.33287         171.529         -47.2976        -156.806         -47.2543        -156.749       -0.0221116         142.989
0.615                   -3.40691         170.807         -47.1665        -158.945         -47.1218        -158.887       -0.0223517         142.909
0.616                   -3.48207         170.087         -47.0394        -161.114         -46.9935        -161.055        -0.022595         142.829
0.617                   -3.55836         169.369         -46.9164        -163.314         -46.8694        -163.254       -0.0228415         142.748
0.618                   -3.63575         168.653         -46.7975        -165.542         -46.7497        -165.483       -0.0230913         142.667
0.619                   -3.71422         167.939         -46.6829        -167.799         -46.6342         -167.74       -0.0233445         142.586
0.62                    -3.79376         167.228         -46.5726        -170.084         -46.5232        -170.025       -0.0236012         142.505
0.621                   -3.87435         166.519         -46.4666        -172.395         -46.4167        -172.337       -0.0238613         142.423
0.622                   -3.95597         165.812         -46.3649        -174.732         -46.3146        -174.674       -0.0241249         142.341
0.623                    -4.0386         165.108         -46.2675        -177.093          -46.217        -177.036       -0.0243922         142.259
0.624                   -4.12222         164.407         -46.1745        -179.477         -46.1239        -179.422       -0.0246631         142.177
0.625                    -4.2068         163.708         -46.0859         178.117         -46.0353         178.171       -0.0249379         142.094
0.626                   -4.29232         163.012         -46.0016          175.69         -45.9511         175.743       -0.0252164         142.011
0.627                   -4.37877         162.319         -45.9216         173.244         -45.8714         173.295       -0.0254988         141.928
0.628                   -4.46611         161.628         -45.8459          170.78         -45.7961          170.83       -0.0257852         141.845
0.629                   -4.55432         160.941         -45.7744           168.3          -45.725         168.348       -0.0260757         141.761
0.63                    -4.64338         160.256          -45.707         165.806         -45.6582         165.852       -0.0263702         141.677
0.631                   -4.73325         159.573         -45.6436         163.298         -45.5956         163.342        -0.026669         141.593
0.632                   -4.82392         158.894         -45.5841         160.778         -45.5369         160.821       -0.0269721         141.508
0.633                   -4.91536         158.216         -45.5284         158.248         -45.4822         158.289       -0.0272795         141.424
0.634                   -5.00754         157.542         -45.4765         155.709         -45.4313         155.748       -0.0275914         141.338
0.635                   -5.10043         156.869          -45.428         153.163         -45.3839           153.2       -0.0279079         141.253
0.636                   -5.19401         156.199         -45.3829         150.611           -45.34         150.647        -0.028229         141.167
0.637                   -5.28826         155.531          -45.341         148.055         -45.2994         148.089       -0.0285548         141.081
0.638                   -5.38314         154.864         -45.3022         145.496         -45.2619         145.528       -0.0288854         140.995
0.639                   -5.47863         154.199         -45.2662         142.935         -45.2273         142.966        -0.029221         140.909
0.64                     -5.5747         153.536         -45.2328         140.374         -45.1953         140.403       -0.0295616         140.822
0.641                   -5.67134         152.873          -45.202         137.814         -45.1659         137.842       -0.0299074         140.735
0.642                   -5.76852         152.211         -45.1733         135.256         -45.1388         135.282       -0.0302584         140.647
0.643                   -5.86622         151.549         -45.1468         132.701         -45.1138         132.726       -0.0306147         140.559
0.644                   -5.96442         150.887         -45.1221         130.151         -45.0906         130.175       -0.0309765         140.471
0.645                    -6.0631         150.224          -45.099         127.606         -45.0691         127.629       -0.0313439         140.383
0.646                   -6.16227          149.56         -45.0773         125.067          -45.049         125.089        -0.031717         140.294
0.647                    -6.2619         148.894         -45.0569         122.535         -45.0301         122.556       -0.0320959         140.205
0.648                     -6.362         148.226         -45.0376         120.012         -45.0123         120.031       -0.0324807         140.115
0.649                   -6.46257         147.554          -45.019         117.497         -44.9953         117.516       -0.0328716         140.025
0.65                    -6.56364         146.877         -45.0011         114.991         -44.9789         115.009       -0.0332687         139.935
0.651                   -6.66521         146.196         -44.9837         112.496         -44.9629         112.513       -0.0336722         139.844
0.652                   -6.76734         145.508         -44.9665         110.011         -44.9472         110.027       -0.0340821         139.753
0.653                   -6.87006         144.812         -44.9494         107.538         -44.9315         107.553       -0.0344987         139.662
0.654                   -6.97347         144.108         -44.9322         105.076         -44.9158          105.09        -0.034922          139.57
0.655                   -7.07765         143.393         -44.9149         102.626         -44.8997         102.639       -0.0353522         139.478
0.656                   -7.18273         142.666         -44.8971         100.189         -44.8832         100.201       -0.0357896         139.386
0.657                   -7.28888         141.925         -44.8788         97.7644         -44.8662         97.7759       -0.0362341         139.293
0.658                    -7.3963         141.168         -44.8599          95.353         -44.8485         95.3636       -0.0366861           139.2
0.659                   -7.50526         140.393         -44.8401         92.9548         -44.8299         92.9646       -0.0371457         139.106
0.66                     -7.6161         139.598         -44.8195         90.5702         -44.8104         90.5792        -0.037613         139.012
0.661                   -7.72922          138.78         -44.7979         88.1993         -44.7898         88.2074       -0.0380882         138.917
0.662                   -7.84515         137.936         -44.7752         85.8422          -44.768         85.8494       -0.0385716         138.823
0.663                   -7.96454         137.064         -44.7513          83.499         -44.7451         83.5054       -0.0390632         138.727
0.664                   -8.08817         136.162         -44.7261         81.1698         -44.7207         81.1754       -0.0395634         138.631
0.665                   -8.21704         135.226         -44.6995         78.8546          -44.695         78.8595       -0.0400722         138.535
0.666                   -8.35233         134.254         -44.6716         76.5535         -44.6678         76.5576         -0.04059         138.438
0.667                   -8.49547         133.247         -44.6422         74.2665         -44.6391         74.2698       -0.0411169         138.341
0.668                   -8.64819         132.202         -44.6112         71.9934         -44.6088         71.9959       -0.0416531         138.244
0.669                    -8.8125         131.123         -44.5787         69.7342         -44.5769         69.7361       -0.0421989         138.146
0.67                    -8.99069         130.015         -44.5446          67.489         -44.5434         67.4901       -0.0427545         138.047
0.671                   -9.18535         128.884         -44.5089         65.2574         -44.5081         65.2579       -0.0433201         137.948
0.672                   -9.39919         127.746         -44.4715         63.0396         -44.4712         63.0394        -0.043896         137.848
0.673                   -9.63489         126.619         -44.4324         60.8352         -44.4325         60.8344       -0.0444825         137.748
0.674                   -9.89483          125.53         -44.3916         58.6441         -44.3921         58.6428       -0.0450798         137.648
0.675                   -10.1806         124.516         -44.3491         56.4662         -44.3499         56.4643       -0.0456881         137.547
0.676                   -10.4926         123.617         -44.3049         54.3012         -44.3059         54.2989       -0.0463078         137.445
0.677                   -10.8291         122.883         -44.2589         52.1489         -44.2602         52.1462       -0.0469391         137.343
0.678                   -11.1862         122.361         -44.2113         50.0092         -44.2127         50.0061       -0.0475823          137.24
0.679                   -11.5572         122.095         -44.1619         47.8816         -44.1635         47.8782       -0.0482377         137.137
0.68                     -11.933         122.117         -44.1108          45.766         -44.1125         45.7623       -0.0489057         137.033
0.681                   -12.3027         122.435          -44.058         43.6621         -44.0598         43.6582       -0.0495866         136.929
0.682                   -12.6551         123.037         -44.0035         41.5695         -44.0054         41.5654       -0.0502806         136.824
0.683                   -12.9802         123.883         -43.9473         39.4879         -43.9492         39.4837       -0.0509882         136.718
0.684                   -13.2706         124.917         -43.8895          37.417         -43.8914         37.4127       -0.0517096         136.612
0.685                   -13.5223          126.07           -43.83         35.3565         -43.8319         35.3522       -0.0524452         136.505
0.686                   -13.7349         127.276         -43.7689         33.3061         -43.7708         33.3019       -0.0531955         136.398
0.687                    -13.911         128.475         -43.7062         31.2654          -43.708         31.2613       -0.0539607          136.29
0.688                   -14.0552         129.621          -43.642         29.2342         -43.6437         29.2302       -0.0547413         136.181
0.689                    -14.173         130.683         -43.5762          27.212         -43.5778         27.2082       -0.0555377         136.072
0.69                    -14.2702         131.644         -43.5089         25.1986         -43.5105          25.195       -0.0563503         135.962
0.691                   -14.3519         132.497         -43.4402         23.1936         -43.4416         23.1902       -0.0571795         135.852
0.692                   -14.4226         133.243         -43.3699         21.1967         -43.3712         21.1936       -0.0580258          135.74
0.693                   -14.4862          133.89         -43.2982         19.2075         -43.2994         19.2047       -0.0588896         135.628
0.694                   -14.5453         134.444         -43.2252         17.2257         -43.2261         17.2232       -0.0597714         135.515
0.695                   -14.6022         134.918         -43.1507         15.2509         -43.1515         15.2488       -0.0606716         135.402
0.696                   -14.6584         135.322         -43.0748         13.2827         -43.0755         13.2811       -0.0615908         135.288
0.697                   -14.7151         135.664         -42.9977         11.3209         -42.9982         11.3197       -0.0625295         135.173