! TOUCHSTONE file generated by CST MICROWAVE STUDIO
! Date and time: Mon Oct 26 12:06:47 2020
! Project name: Scenario_1_Circular_Tissue_out_of_Line_v2.cst
! Parameters = {dy1=-86.5; L_HA=400; MT=2.54; Rad_Dielectric=30; Rad_Lower=7.3; Rad_Upper=30; a_HA=580; a_WG=246; b_HA=500; b_WG=121; c_HA=0; c_WG=187; d_feed=85; dx1=173; h_feed=15; h_lower=18; h_upper=40}
! Header version: 2018
! Port assignment regex: !\s*Touchstone port\s*([0-9]+)\s*=\s*(CST MWS port|CST DS port)\s*([0-9]+|Zmin|Zmax)\s*\(\"(.*)\"\)(\s*mode\s*([0-9]+))?.*
! Touchstone port assignment:
! Touchstone port 1 = CST MWS port 1 ("")
! Touchstone port 2 = CST MWS port 2 ("")
# GHz S DB R 50
0.5                    -0.108735        -122.544         -57.1156         132.123         -57.1156         132.123       -0.0071474         151.114
0.501                  -0.116057        -123.043         -56.8986         131.067         -56.8986         131.066      -0.00719015         151.048
0.502                  -0.123731        -123.543         -56.6816         130.003         -56.6815         130.003      -0.00723437         150.983
0.503                  -0.131754        -124.042         -56.4644         128.932         -56.4643         128.932      -0.00728007         150.917
0.504                  -0.140123        -124.543         -56.2471         127.854          -56.247         127.853      -0.00732726         150.851
0.505                  -0.148837        -125.044         -56.0296         126.768         -56.0295         126.766      -0.00737595         150.786
0.506                  -0.157891        -125.545          -55.812         125.673         -55.8119         125.672      -0.00742615          150.72
0.507                  -0.167285        -126.047         -55.5943          124.57         -55.5942         124.568      -0.00747788         150.654
0.508                  -0.177013        -126.549         -55.3765         123.457         -55.3764         123.455      -0.00753115         150.588
0.509                  -0.187075        -127.051         -55.1586         122.335         -55.1585         122.332      -0.00758597         150.522
0.51                   -0.197466        -127.554         -54.9406         121.202         -54.9404           121.2      -0.00764235         150.456
0.511                  -0.208184        -128.057         -54.7224          120.06         -54.7223         120.057      -0.00770031          150.39
0.512                  -0.219224        -128.561         -54.5042         118.906          -54.504         118.903      -0.00775986         150.323
0.513                  -0.230585        -129.065         -54.2858         117.741         -54.2857         117.738      -0.00782102         150.257
0.514                  -0.242262        -129.569         -54.0675         116.565         -54.0673         116.562      -0.00788379          150.19
0.515                  -0.254252        -130.074          -53.849         115.376         -53.8489         115.373       -0.0079482         150.124
0.516                  -0.266552        -130.579         -53.6306         114.175         -53.6305         114.172      -0.00801425         150.057
0.517                  -0.279158        -131.084         -53.4122          112.96          -53.412         112.957      -0.00808197          149.99
0.518                  -0.292066        -131.589         -53.1937         111.733         -53.1936          111.73      -0.00815136         149.924
0.519                  -0.305273        -132.095         -52.9754         110.491         -52.9753         110.488      -0.00822244         149.857
0.52                   -0.318775        -132.602         -52.7572         109.236         -52.7571         109.232      -0.00829523          149.79
0.521                  -0.332567        -133.108          -52.539         107.965          -52.539         107.962      -0.00836974         149.723
0.522                  -0.346647        -133.615         -52.3211          106.68          -52.321         106.677      -0.00844599         149.655
0.523                  -0.361011        -134.122         -52.1034         105.379         -52.1033         105.376        -0.008524         149.588
0.524                  -0.375653        -134.629          -51.886         104.062         -51.8859         104.059      -0.00860378         149.521
0.525                  -0.390572        -135.137         -51.6689         102.729         -51.6688         102.726      -0.00868534         149.453
0.526                  -0.405761        -135.645         -51.4522         101.379         -51.4521         101.376      -0.00876871         149.386
0.527                  -0.421218        -136.154         -51.2359         100.012         -51.2359         100.009       -0.0088539         149.318
0.528                  -0.436939        -136.662         -51.0202         98.6277         -51.0202         98.6245      -0.00894093         149.251
0.529                  -0.452919        -137.172          -50.805         97.2254         -50.8051         97.2224      -0.00902982         149.183
0.53                   -0.469154        -137.681         -50.5906         95.8051         -50.5906         95.8021      -0.00912058         149.115
0.531                   -0.48564        -138.191         -50.3769         94.3662         -50.3769         94.3634      -0.00921324         149.047
0.532                  -0.502373        -138.701          -50.164         92.9086         -50.1641         92.9059      -0.00930781         148.979
0.533                  -0.519348        -139.212         -49.9521          91.432         -49.9522         91.4294      -0.00940431         148.911
0.534                  -0.536563        -139.723         -49.7412         89.9361         -49.7413         89.9336      -0.00950276         148.842
0.535                  -0.554012        -140.234         -49.5315         88.4206         -49.5316         88.4183      -0.00960318         148.774
0.536                  -0.571692        -140.746          -49.323         86.8855         -49.3232         86.8834      -0.00970558         148.706
0.537                  -0.589598        -141.258         -49.1159         85.3306         -49.1161         85.3287      -0.00980999         148.637
0.538                  -0.607727        -141.771         -48.9103         83.7558         -48.9104         83.7541      -0.00991643         148.568
0.539                  -0.626074        -142.284         -48.7063          82.161         -48.7064         82.1595       -0.0100249           148.5
0.54                   -0.644636        -142.798          -48.504         80.5463         -48.5041          80.545       -0.0101355         148.431
0.541                  -0.663408        -143.313         -48.3035         78.9116         -48.3037         78.9105       -0.0102481         148.362
0.542                  -0.682386        -143.827         -48.1051         77.2571         -48.1052         77.2562       -0.0103629         148.293
0.543                  -0.701567        -144.343         -47.9087         75.5829         -47.9089         75.5823       -0.0104797         148.224
0.544                  -0.720946        -144.859         -47.7147         73.8892         -47.7149         73.8889       -0.0105987         148.154
0.545                   -0.74052        -145.376          -47.523         72.1764         -47.5232         72.1764       -0.0107199         148.085
0.546                  -0.760286        -145.894         -47.3339         70.4449         -47.3341          70.445       -0.0108433         148.015
0.547                  -0.780239        -146.412         -47.1475         68.6949         -47.1477         68.6953       -0.0109689         147.946
0.548                  -0.800376        -146.931         -46.9639          66.927         -46.9641         66.9277       -0.0110967         147.876
0.549                  -0.820693        -147.451         -46.7832         65.1418         -46.7834         65.1428       -0.0112268         147.806
0.55                   -0.841188        -147.972         -46.6057         63.3399         -46.6058         63.3412       -0.0113591         147.736
0.551                  -0.861855        -148.493         -46.4313         61.5221         -46.4315         61.5237       -0.0114937         147.666
0.552                  -0.882694        -149.016         -46.2603         59.6891         -46.2604          59.691       -0.0116306         147.596
0.553                  -0.903699         -149.54         -46.0928         57.8418         -46.0929         57.8439       -0.0117699         147.526
0.554                  -0.924869        -150.064         -45.9288         55.9811         -45.9289         55.9835       -0.0119114         147.456
0.555                  -0.946199         -150.59         -45.7685          54.108         -45.7685         54.1106       -0.0120554         147.385
0.556                  -0.967689        -151.117         -45.6119         52.2235          -45.612         52.2264       -0.0122017         147.315
0.557                  -0.989334        -151.645         -45.4592         50.3288         -45.4592          50.332       -0.0123504         147.244
0.558                   -1.01113        -152.174         -45.3105         48.4251         -45.3104         48.4285       -0.0125016         147.173
0.559                   -1.03308        -152.705         -45.1657         46.5135         -45.1656         46.5171       -0.0126551         147.102
0.56                    -1.05518        -153.237         -45.0249         44.5952         -45.0248          44.599       -0.0128111         147.031
0.561                   -1.07742         -153.77         -44.8882         42.6717         -44.8881         42.6757       -0.0129695          146.96
0.562                   -1.09981        -154.305         -44.7556         40.7441         -44.7554         40.7482       -0.0131304         146.889
0.563                   -1.12234        -154.842         -44.6271         38.8137         -44.6269         38.8181       -0.0132938         146.817
0.564                   -1.14502         -155.38         -44.5026          36.882         -44.5024         36.8865       -0.0134597         146.746
0.565                   -1.16783        -155.919         -44.3823         34.9502          -44.382         34.9548        -0.013628         146.674
0.566                   -1.19079        -156.461         -44.2659         33.0196         -44.2656         33.0243       -0.0137989         146.602
0.567                   -1.21388        -157.004         -44.1536         31.0915         -44.1532         31.0963       -0.0139722          146.53
0.568                   -1.23711         -157.55         -44.0451         29.1672         -44.0447          29.172       -0.0141481         146.458
0.569                   -1.26047        -158.097         -43.9405         27.2478         -43.9401         27.2527       -0.0143264         146.386
0.57                    -1.28398        -158.646         -43.8396         25.3346         -43.8392         25.3396       -0.0145073         146.314
0.571                   -1.30762        -159.198         -43.7424         23.4288         -43.7419         23.4337       -0.0146906         146.241
0.572                    -1.3314        -159.752         -43.6488         21.5312         -43.6482         21.5362       -0.0148764         146.169
0.573                   -1.35532        -160.308         -43.5585         19.6431         -43.5579          19.648       -0.0150647         146.096
0.574                   -1.37938        -160.867         -43.4716         17.7653          -43.471         17.7701       -0.0152555         146.023
0.575                   -1.40358        -161.428         -43.3878         15.8986         -43.3871         15.9034       -0.0154487          145.95
0.576                   -1.42792        -161.992         -43.3071          14.044         -43.3063         14.0487       -0.0156443         145.877
0.577                   -1.45241        -162.558         -43.2292         12.2022         -43.2284         12.2067       -0.0158423         145.804
0.578                   -1.47705        -163.128          -43.154         10.3737         -43.1532         10.3781       -0.0160427          145.73
0.579                   -1.50184          -163.7         -43.0814         8.55919         -43.0806         8.56351       -0.0162454         145.657
0.58                    -1.52679        -164.276         -43.0112         6.75918         -43.0103         6.76336       -0.0164504         145.583
0.581                   -1.55189        -164.854         -42.9432          4.9741         -42.9424         4.97812       -0.0166577         145.509
0.582                   -1.57716        -165.436         -42.8774          3.2043         -42.8765         3.20816       -0.0168672         145.435
0.583                    -1.6026        -166.022         -42.8134         1.45008         -42.8125         1.45376       -0.0170789         145.361
0.584                   -1.62821        -166.611         -42.7513       -0.288337         -42.7503       -0.284851       -0.0172927         145.287
0.585                   -1.65401        -167.203         -42.6907         -2.0108         -42.6897        -2.00751       -0.0175086         145.213
0.586                   -1.67999          -167.8         -42.6316        -3.71721         -42.6306        -3.71412       -0.0177264         145.138
0.587                   -1.70617          -168.4         -42.5738        -5.40753         -42.5728        -5.40465       -0.0179462         145.064
0.588                   -1.73255        -169.005         -42.5171        -7.08178         -42.5161        -7.07911       -0.0181678         144.989
0.589                   -1.75915        -169.613         -42.4615        -8.74002         -42.4605        -8.73756       -0.0183913         144.914
0.59                    -1.78596        -170.226         -42.4068        -10.3824         -42.4057        -10.3801       -0.0186164         144.839
0.591                   -1.81301        -170.844         -42.3528         -12.009         -42.3517         -12.007       -0.0188432         144.763
0.592                   -1.84031        -171.466         -42.2994        -13.6201         -42.2983        -13.6183       -0.0190715         144.688
0.593                   -1.86786        -172.094         -42.2465         -15.216         -42.2454        -15.2144       -0.0193013         144.612
0.594                   -1.89569        -172.726         -42.1939        -16.7969         -42.1929        -16.7955       -0.0195325         144.537
0.595                   -1.92379        -173.363         -42.1417         -18.363         -42.1406        -18.3619        -0.019765         144.461
0.596                    -1.9522        -174.006         -42.0895        -19.9148         -42.0885        -19.9139       -0.0199987         144.384
0.597                   -1.98093        -174.654         -42.0374        -21.4526         -42.0364        -21.4519       -0.0202335         144.308
0.598                   -2.00999        -175.308         -41.9853        -22.9769         -41.9843        -22.9763       -0.0204693         144.232
0.599                    -2.0394        -175.967          -41.933        -24.4878          -41.932        -24.4875       -0.0207061         144.155
0.6                     -2.06919        -176.633         -41.8805        -25.9861         -41.8795        -25.9859       -0.0209437         144.078
0.601                   -2.09937        -177.305         -41.8277        -27.4719         -41.8267         -27.472       -0.0211821         144.001
0.602                   -2.12998        -177.983         -41.7744        -28.9459         -41.7735        -28.9461       -0.0214213         143.924
0.603                   -2.16103        -178.668         -41.7208        -30.4083         -41.7198        -30.4087       -0.0216611         143.847
0.604                   -2.19255         -179.36         -41.6666        -31.8599         -41.6656        -31.8604       -0.0219015         143.769
0.605                   -2.22456         179.941         -41.6118        -33.3009         -41.6108        -33.3016       -0.0221424         143.692
0.606                   -2.25711         179.235         -41.5563        -34.7318         -41.5554        -34.7327       -0.0223838         143.614
0.607                   -2.29022         178.522         -41.5002        -36.1532         -41.4993        -36.1543       -0.0226256         143.536
0.608                   -2.32392           177.8         -41.4433        -37.5656         -41.4425        -37.5667        -0.022868         143.457
0.609                   -2.35825         177.071         -41.3856        -38.9694         -41.3848        -38.9706       -0.0231107         143.379
0.61                    -2.39325         176.334         -41.3272         -40.365         -41.3263        -40.3665       -0.0233539           143.3
0.611                   -2.42897         175.589         -41.2678        -41.7531          -41.267        -41.7547       -0.0235975         143.221
0.612                   -2.46543         174.835         -41.2076        -43.1341         -41.2068        -43.1357       -0.0238417         143.142
0.613                    -2.5027         174.072         -41.1464        -44.5085         -41.1457        -44.5102       -0.0240863         143.062
0.614                   -2.54082         173.301         -41.0843        -45.8767         -41.0836        -45.8785       -0.0243316         142.983
0.615                   -2.57983          172.52         -41.0212        -47.2392         -41.0206        -47.2411       -0.0245775         142.903
0.616                    -2.6198          171.73         -40.9572        -48.5966         -40.9565        -48.5986       -0.0248242         142.823
0.617                   -2.66078          170.93         -40.8922        -49.9493         -40.8915        -49.9513       -0.0250718         142.743
0.618                   -2.70284          170.12         -40.8261        -51.2977         -40.8255        -51.2997       -0.0253203         142.662
0.619                   -2.74603         169.301         -40.7591        -52.6423         -40.7585        -52.6444         -0.02557         142.581
0.62                    -2.79043         168.471         -40.6911        -53.9835         -40.6905        -53.9857        -0.025821           142.5
0.621                   -2.83611          167.63          -40.622        -55.3219         -40.6215        -55.3241       -0.0260734         142.419
0.622                   -2.88315         166.779          -40.552        -56.6579         -40.5515        -56.6601       -0.0263274         142.338
0.623                   -2.93162         165.917         -40.4809        -57.9918         -40.4804         -57.994       -0.0265832         142.256
0.624                   -2.98161         165.044         -40.4089        -59.3241         -40.4084        -59.3263        -0.026841         142.174
0.625                    -3.0332          164.16         -40.3359        -60.6553         -40.3355        -60.6575        -0.027101         142.091
0.626                    -3.0865         163.264         -40.2619        -61.9857         -40.2615        -61.9879       -0.0273634         142.009
0.627                   -3.14161         162.356          -40.187        -63.3157         -40.1867        -63.3179       -0.0276285         141.926
0.628                   -3.19861         161.437         -40.1112        -64.6458         -40.1109        -64.6479       -0.0278963         141.843
0.629                   -3.25763         160.506         -40.0345        -65.9762         -40.0342        -65.9784       -0.0281673         141.759
0.63                    -3.31877         159.563         -39.9569        -67.3074         -39.9566        -67.3096       -0.0284415         141.676
0.631                   -3.38216         158.608         -39.8785        -68.6398         -39.8782        -68.6418       -0.0287193         141.592
0.632                   -3.44793         157.641         -39.7992        -69.9736          -39.799        -69.9756       -0.0290008         141.507
0.633                   -3.51619         156.662         -39.7192        -71.3091          -39.719        -71.3111       -0.0292864         141.423
0.634                   -3.58709         155.671         -39.6385        -72.6468         -39.6383        -72.6487       -0.0295761         141.338
0.635                   -3.66077         154.668          -39.557        -73.9869         -39.5569        -73.9888       -0.0298703         141.253
0.636                   -3.73738         153.652         -39.4749        -75.3297         -39.4748        -75.3315       -0.0301692         141.167
0.637                   -3.81707         152.625         -39.3922        -76.6754         -39.3921        -76.6771       -0.0304731         141.081
0.638                       -3.9         151.586         -39.3089        -78.0243         -39.3088         -78.026        -0.030782         140.995
0.639                   -3.98634         150.535         -39.2251        -79.3767          -39.225        -79.3783       -0.0310963         140.909
0.64                    -4.07626         149.473         -39.1408        -80.7328         -39.1407        -80.7343       -0.0314161         140.822
0.641                   -4.16994           148.4         -39.0561        -82.0927          -39.056        -82.0941       -0.0317417         140.735
0.642                   -4.26756         147.316          -38.971        -83.4566          -38.971         -83.458       -0.0320733         140.648
0.643                   -4.36931         146.222         -38.8856        -84.8247         -38.8856         -84.826       -0.0324111          140.56
0.644                   -4.47538         145.118            -38.8        -86.1972         -38.7999        -86.1984       -0.0327552         140.472
0.645                   -4.58598         144.005         -38.7141        -87.5741         -38.7141        -87.5752       -0.0331058         140.383
0.646                   -4.70132         142.883         -38.6281        -88.9555         -38.6281        -88.9566       -0.0334633         140.295
0.647                   -4.82159         141.754          -38.542        -90.3416          -38.542        -90.3426       -0.0338276         140.206
0.648                   -4.94702         140.617         -38.4559        -91.7323         -38.4559        -91.7332        -0.034199         140.116
0.649                   -5.07782         139.474         -38.3698        -93.1276         -38.3698        -93.1285       -0.0345777         140.026
0.65                    -5.21422         138.326         -38.2838        -94.5276         -38.2838        -94.5284       -0.0349639         139.936
0.651                   -5.35644         137.174          -38.198        -95.9322          -38.198        -95.9329       -0.0353576         139.846
0.652                   -5.50471         136.019         -38.1124        -97.3414         -38.1124        -97.3421       -0.0357592         139.755
0.653                   -5.65927         134.862          -38.027        -98.7551          -38.027        -98.7557       -0.0361687         139.663
0.654                   -5.82035         133.705          -37.942        -100.173          -37.942        -100.174       -0.0365863         139.572
0.655                   -5.98818         132.549         -37.8574        -101.595         -37.8574        -101.596       -0.0370122          139.48
0.656                     -6.163         131.396         -37.7732        -103.022         -37.7732        -103.022       -0.0374465         139.387
0.657                   -6.34504         130.248         -37.6896        -104.452         -37.6896        -104.452       -0.0378894         139.294
0.658                   -6.53456         129.107         -37.6065        -105.886         -37.6065        -105.886       -0.0383411         139.201
0.659                   -6.73178         127.974          -37.524        -107.323          -37.524        -107.323       -0.0388017         139.107
0.66                    -6.93695         126.852         -37.4421        -108.764         -37.4422        -108.764       -0.0392714         139.013
0.661                    -7.1503         125.744          -37.361        -110.207          -37.361        -110.207       -0.0397503         138.919
0.662                   -7.37207         124.652         -37.2807        -111.653         -37.2807        -111.653       -0.0402387         138.824
0.663                   -7.60249         123.578         -37.2011        -113.101         -37.2011        -113.101       -0.0407366         138.729
0.664                   -7.84181         122.526         -37.1223        -114.551         -37.1224        -114.551       -0.0412443         138.633
0.665                   -8.09024         121.499         -37.0445        -116.002         -37.0445        -116.002       -0.0417619         138.537
0.666                   -8.34803         120.501         -36.9675        -117.455         -36.9675        -117.455       -0.0422896          138.44
0.667                   -8.61538         119.534         -36.8914        -118.908         -36.8915        -118.908       -0.0428277         138.343
0.668                   -8.89253         118.603         -36.8163        -120.362         -36.8163        -120.362       -0.0433762         138.245
0.669                   -9.17969         117.713         -36.7422        -121.815         -36.7422        -121.815       -0.0439353         138.147
0.67                    -9.47706         116.867          -36.669        -123.268          -36.669        -123.268       -0.0445054         138.049
0.671                   -9.78484         116.072         -36.5968         -124.72         -36.5968         -124.72       -0.0450865          137.95
0.672                   -10.1032         115.331         -36.5256        -126.171         -36.5256        -126.171       -0.0456788          137.85
0.673                   -10.4323         114.652         -36.4554        -127.619         -36.4554        -127.619       -0.0462827          137.75
0.674                   -10.7723         114.042         -36.3862        -129.066         -36.3862        -129.066       -0.0468983          137.65
0.675                   -11.1233         113.506         -36.3179        -130.509         -36.3179        -130.509       -0.0475258         137.549
0.676                   -11.4853         113.053         -36.2506        -131.949         -36.2506        -131.949       -0.0481654         137.448
0.677                   -11.8584         112.693         -36.1842        -133.386         -36.1843        -133.386       -0.0488175         137.345
0.678                   -12.2424         112.434         -36.1188        -134.819         -36.1188        -134.819       -0.0494822         137.243
0.679                   -12.6371         112.287         -36.0542        -136.247         -36.0543        -136.247       -0.0501599          137.14
0.68                    -13.0423         112.264         -35.9905         -137.67         -35.9906         -137.67       -0.0508507         137.036
0.681                   -13.4573         112.378         -35.9277        -139.088         -35.9277        -139.088        -0.051555         136.932
0.682                   -13.8815         112.643         -35.8656          -140.5         -35.8656          -140.5        -0.052273         136.827
0.683                   -14.3138         113.075         -35.8042        -141.906         -35.8043        -141.906        -0.053005         136.722
0.684                   -14.7528          113.69         -35.7435        -143.306         -35.7436        -143.306       -0.0537514         136.616
0.685                   -15.1965         114.506         -35.6835        -144.699         -35.6836          -144.7       -0.0545124         136.509
0.686                   -15.6426         115.541         -35.6241        -146.086         -35.6242        -146.086       -0.0552883         136.402
0.687                   -16.0876         116.814         -35.5652        -147.465         -35.5653        -147.465       -0.0560796         136.294
0.688                   -16.5277         118.342         -35.5068        -148.836         -35.5069        -148.837       -0.0568865         136.186
0.689                    -16.958         120.139         -35.4488          -150.2         -35.4489        -150.201       -0.0577093         136.077
0.69                    -17.3724         122.217         -35.3912        -151.556         -35.3913        -151.557       -0.0585486         135.967
0.691                    -17.764         124.578         -35.3338        -152.904         -35.3339        -152.905       -0.0594046         135.856
0.692                   -18.1253         127.219         -35.2767        -154.244         -35.2769        -154.245       -0.0602777         135.745
0.693                   -18.4482         130.122         -35.2198        -155.576         -35.2199        -155.576       -0.0611684         135.634
0.694                   -18.7245         133.255          -35.163        -156.899         -35.1631        -156.899       -0.0620771         135.521
0.695                   -18.9471         136.574         -35.1062        -158.213         -35.1064        -158.214       -0.0630041         135.408
0.696                   -19.1103         140.019         -35.0494        -159.519         -35.0496         -159.52       -0.0639501         135.294
0.697                   -19.2106         143.522         -34.9926        -160.817         -34.9927        -160.817       -0.0649153         135.179