! TOUCHSTONE file generated by CST MICROWAVE STUDIO
! Date and time: Wed Oct 28 19:36:31 2020
! Project name: Scenario_1_Circular_Tissue_out_of_Line_v2.cst
! Parameters = {dy1=-86.5; L_HA=400; MT=2.54; Rad_Dielectric=30; Rad_Lower=7.3; Rad_Upper=30; a_HA=580; a_WG=246; b_HA=500; b_WG=121; c_HA=0; c_WG=187; d_feed=85; dx1=346; h_feed=15; h_lower=18; h_upper=40}
! Header version: 2018
! Port assignment regex: !\s*Touchstone port\s*([0-9]+)\s*=\s*(CST MWS port|CST DS port)\s*([0-9]+|Zmin|Zmax)\s*\(\"(.*)\"\)(\s*mode\s*([0-9]+))?.*
! Touchstone port assignment:
! Touchstone port 1 = CST MWS port 1 ("")
! Touchstone port 2 = CST MWS port 2 ("")
# GHz S DB R 50
0.5                    -0.173353         -122.25         -58.5575         30.3105         -58.5575         30.3105      -0.00785402         151.142
0.501                  -0.178361        -122.675         -58.4202         28.7949         -58.4202          28.795      -0.00792449         151.077
0.502                   -0.18343        -123.102         -58.2838         27.2819         -58.2838         27.2821      -0.00799517         151.012
0.503                  -0.188562        -123.531         -58.1482         25.7717         -58.1482          25.772      -0.00806605         150.947
0.504                   -0.19376        -123.962         -58.0133         24.2644         -58.0133         24.2648      -0.00813714         150.881
0.505                  -0.199027        -124.396         -57.8792         22.7603         -57.8792         22.7608      -0.00820845         150.816
0.506                  -0.204367        -124.832         -57.7458         21.2597         -57.7458         21.2602      -0.00827998          150.75
0.507                  -0.209783         -125.27         -57.6131         19.7625         -57.6131         19.7631      -0.00835173         150.685
0.508                  -0.215279        -125.711          -57.481         18.2691          -57.481         18.2697      -0.00842371         150.619
0.509                  -0.220859        -126.154         -57.3496         16.7796         -57.3496         16.7803      -0.00849591         150.554
0.51                   -0.226527          -126.6         -57.2187         15.2942         -57.2187         15.2949      -0.00856836         150.488
0.511                  -0.232287        -127.048         -57.0883         13.8129         -57.0883         13.8136      -0.00864104         150.422
0.512                  -0.238143        -127.499         -56.9584         12.3358         -56.9585         12.3366      -0.00871396         150.356
0.513                  -0.244101        -127.952          -56.829         10.8632         -56.8291         10.8639      -0.00878713          150.29
0.514                  -0.250165        -128.408            -56.7         9.39494            -56.7          9.3957      -0.00886056         150.224
0.515                   -0.25634        -128.867         -56.5713         7.93121         -56.5714         7.93199      -0.00893425         150.158
0.516                  -0.262632        -129.328         -56.4429         6.47203          -56.443         6.47283       -0.0090082         150.091
0.517                  -0.269046        -129.793         -56.3148         5.01742         -56.3149         5.01824      -0.00908242         150.025
0.518                  -0.275589         -130.26         -56.1869          3.5674          -56.187         3.56822      -0.00915692         149.958
0.519                  -0.282267         -130.73         -56.0591         2.12194         -56.0592         2.12278       -0.0092317         149.892
0.52                   -0.289086        -131.202         -55.9315        0.681017         -55.9316        0.681882      -0.00930677         149.825
0.521                  -0.296053        -131.678         -55.8039        -0.75541          -55.804       -0.754527      -0.00938215         149.759
0.522                  -0.303174        -132.157         -55.6763        -2.18741         -55.6764        -2.18651      -0.00945782         149.692
0.523                  -0.310459        -132.639         -55.5487        -3.61507         -55.5488        -3.61415      -0.00953381         149.625
0.524                  -0.317914        -133.124          -55.421        -5.03849         -55.4211        -5.03755      -0.00961013         149.558
0.525                  -0.325547        -133.612         -55.2931        -6.45779         -55.2932        -6.45683      -0.00968677         149.491
0.526                  -0.333368        -134.104          -55.165        -7.87311         -55.1652        -7.87212      -0.00976375         149.424
0.527                  -0.341385        -134.598         -55.0367         -9.2846         -55.0369        -9.28359      -0.00984108         149.356
0.528                  -0.349607        -135.096         -54.9081        -10.6924         -54.9083        -10.6914      -0.00991877         149.289
0.529                  -0.358044        -135.598         -54.7792        -12.0968         -54.7794        -12.0958      -0.00999683         149.222
0.53                   -0.366707        -136.102         -54.6499        -13.4979         -54.6501        -13.4969       -0.0100753         149.154
0.531                  -0.375606        -136.611         -54.5201         -14.896         -54.5203        -14.8949       -0.0101541         149.087
0.532                  -0.384751        -137.122         -54.3899        -16.2913         -54.3901        -16.2902       -0.0102333         149.019
0.533                  -0.394156        -137.638         -54.2592         -17.684         -54.2594        -17.6828        -0.010313         148.951
0.534                  -0.403831        -138.157         -54.1279        -19.0744         -54.1281        -19.0733       -0.0103931         148.883
0.535                  -0.413789        -138.679         -53.9961        -20.4628         -53.9963        -20.4616       -0.0104736         148.815
0.536                  -0.424044        -139.205         -53.8636        -21.8495         -53.8638        -21.8483       -0.0105546         148.747
0.537                  -0.434608        -139.735         -53.7305        -23.2348         -53.7307        -23.2336       -0.0106361         148.679
0.538                  -0.445497        -140.269         -53.5967         -24.619         -53.5969        -24.6178       -0.0107181          148.61
0.539                  -0.456725        -140.806         -53.4622        -26.0024         -53.4623        -26.0012       -0.0108006         148.542
0.54                   -0.468307        -141.348         -53.3269        -27.3854         -53.3271        -27.3841       -0.0108836         148.473
0.541                   -0.48026        -141.893         -53.1908        -28.7682          -53.191         -28.767       -0.0109671         148.405
0.542                    -0.4926        -142.442          -53.054        -30.1514         -53.0542        -30.1502       -0.0110513         148.336
0.543                  -0.505344        -142.995         -52.9164        -31.5352         -52.9165         -31.534        -0.011136         148.267
0.544                   -0.51851        -143.552         -52.7779          -32.92          -52.778        -32.9188       -0.0112213         148.198
0.545                  -0.532116        -144.113         -52.6386        -34.3061         -52.6387         -34.305       -0.0113073         148.129
0.546                  -0.546183        -144.679         -52.4984        -35.6941         -52.4985        -35.6929       -0.0113939          148.06
0.547                  -0.560729        -145.248         -52.3574        -37.0842         -52.3575        -37.0831       -0.0114813         147.991
0.548                  -0.575776        -145.821         -52.2155        -38.4769         -52.2156        -38.4758       -0.0115693         147.921
0.549                  -0.591344        -146.398         -52.0727        -39.8726         -52.0728        -39.8715       -0.0116581         147.852
0.55                   -0.607456         -146.98          -51.929        -41.2716         -51.9291        -41.2706       -0.0117477         147.782
0.551                  -0.624135        -147.565         -51.7844        -42.6745         -51.7845        -42.6735        -0.011838         147.712
0.552                  -0.641402        -148.155          -51.639        -44.0815         -51.6391        -44.0806       -0.0119293         147.642
0.553                  -0.659283        -148.749         -51.4927        -45.4932         -51.4928        -45.4924       -0.0120213         147.572
0.554                  -0.677803        -149.347         -51.3456        -46.9099         -51.3456        -46.9091       -0.0121143         147.502
0.555                  -0.696985        -149.948         -51.1976         -48.332         -51.1977        -48.3314       -0.0122083         147.432
0.556                  -0.716857        -150.554         -51.0488        -49.7601         -51.0489        -49.7595       -0.0123032         147.362
0.557                  -0.737444        -151.164         -50.8992        -51.1944         -50.8992        -51.1938       -0.0123992         147.291
0.558                  -0.758775        -151.778         -50.7489        -52.6353         -50.7489        -52.6349       -0.0124962         147.221
0.559                  -0.780875        -152.395         -50.5977        -54.0834         -50.5977        -54.0831       -0.0125944          147.15
0.56                   -0.803773        -153.017         -50.4459        -55.5389         -50.4459        -55.5387       -0.0126937         147.079
0.561                  -0.827497        -153.642         -50.2934        -57.0024         -50.2934        -57.0022       -0.0127942         147.008
0.562                  -0.852076        -154.271         -50.1402        -58.4741         -50.1402         -58.474        -0.012896         146.937
0.563                  -0.877539        -154.903         -49.9864        -59.9544         -49.9864        -59.9545       -0.0129992         146.865
0.564                  -0.903914        -155.539         -49.8321        -61.4438          -49.832         -61.444       -0.0131037         146.794
0.565                   -0.93123        -156.178         -49.6772        -62.9425         -49.6772        -62.9428       -0.0132096         146.723
0.566                  -0.959516        -156.821         -49.5219        -64.4509         -49.5219        -64.4514        -0.013317         146.651
0.567                  -0.988801        -157.466         -49.3662        -65.9694         -49.3661          -65.97       -0.0134259         146.579
0.568                   -1.01911        -158.114         -49.2101        -67.4983         -49.2101        -67.4989       -0.0135365         146.507
0.569                   -1.05048        -158.765         -49.0537        -69.0378         -49.0537        -69.0385       -0.0136487         146.435
0.57                    -1.08293        -159.418         -48.8972        -70.5882         -48.8971        -70.5891       -0.0137627         146.363
0.571                   -1.11648        -160.074         -48.7404        -72.1499         -48.7404        -72.1508       -0.0138785          146.29
0.572                   -1.15117        -160.732         -48.5836        -73.7229         -48.5836         -73.724       -0.0139961         146.218
0.573                   -1.18701        -161.391         -48.4268        -75.3077         -48.4267        -75.3089       -0.0141157         146.145
0.574                   -1.22403        -162.052           -48.27        -76.9043           -48.27        -76.9056       -0.0142374         146.072
0.575                   -1.26225        -162.715         -48.1134        -78.5129         -48.1134        -78.5143       -0.0143611         145.999
0.576                   -1.30169        -163.378          -47.957        -80.1336          -47.957        -80.1351        -0.014487         145.926
0.577                   -1.34235        -164.042         -47.8009        -81.7666         -47.8009        -81.7682       -0.0146151         145.853
0.578                   -1.38427        -164.707         -47.6452        -83.4119         -47.6452        -83.4136       -0.0147456         145.779
0.579                   -1.42744        -165.371           -47.49        -85.0697           -47.49        -85.0714       -0.0148784         145.706
0.58                    -1.47187        -166.035         -47.3354        -86.7398         -47.3354        -86.7416       -0.0150138         145.632
0.581                   -1.51756        -166.699         -47.1814        -88.4222         -47.1815        -88.4241       -0.0151516         145.558
0.582                   -1.56453        -167.361         -47.0282         -90.117         -47.0283         -90.119       -0.0152922         145.484
0.583                   -1.61276        -168.022         -46.8759         -91.824         -46.8759         -91.826       -0.0154354          145.41
0.584                   -1.66224        -168.681         -46.7245        -93.5431         -46.7246        -93.5451       -0.0155814         145.335
0.585                   -1.71296        -169.338         -46.5741        -95.2741         -46.5742        -95.2761       -0.0157303         145.261
0.586                   -1.76491        -169.993         -46.4248        -97.0168          -46.425        -97.0188       -0.0158822         145.186
0.587                   -1.81805        -170.644         -46.2768        -98.7709         -46.2769        -98.7729        -0.016037         145.111
0.588                   -1.87237        -171.292         -46.1301        -100.536         -46.1302        -100.538        -0.016195         145.036
0.589                   -1.92783        -171.936         -45.9847        -102.312         -45.9849        -102.314       -0.0163561         144.961
0.59                    -1.98439        -172.576         -45.8409        -104.099         -45.8411        -104.101       -0.0165205         144.885
0.591                     -2.042        -173.212         -45.6986        -105.895         -45.6988        -105.897       -0.0166881          144.81
0.592                   -2.10062        -173.842         -45.5579        -107.701         -45.5581        -107.703       -0.0168591         144.734
0.593                   -2.16019        -174.467         -45.4189        -109.516         -45.4192        -109.518       -0.0170336         144.658
0.594                   -2.22064        -175.087         -45.2818         -111.34          -45.282        -111.342       -0.0172115         144.582
0.595                   -2.28192        -175.701         -45.1464        -113.172         -45.1467        -113.174       -0.0173929         144.506
0.596                   -2.34395        -176.309          -45.013        -115.011         -45.0133        -115.013        -0.017578         144.429
0.597                   -2.40665         -176.91         -44.8815        -116.857         -44.8818        -116.859       -0.0177667         144.353
0.598                   -2.46995        -177.505          -44.752         -118.71         -44.7523        -118.711        -0.017959         144.276
0.599                   -2.53375        -178.093         -44.6246        -120.567         -44.6249        -120.569       -0.0181551         144.199
0.6                     -2.59798        -178.675         -44.4993         -122.43         -44.4996        -122.432       -0.0183549         144.122
0.601                   -2.66254         -179.25          -44.376        -124.297         -44.3763        -124.298       -0.0185585         144.044
0.602                   -2.72734        -179.818         -44.2549        -126.168         -44.2552        -126.169       -0.0187659         143.967
0.603                   -2.79229          179.62          -44.136        -128.041         -44.1363        -128.042       -0.0189771         143.889
0.604                   -2.85729         179.066         -44.0192        -129.916         -44.0195        -129.917       -0.0191921         143.811
0.605                   -2.92224         178.517         -43.9045        -131.793         -43.9048        -131.794        -0.019411         143.733
0.606                   -2.98706         177.974          -43.792         -133.67         -43.7923        -133.671       -0.0196338         143.654
0.607                   -3.05166         177.438         -43.6817        -135.547          -43.682        -135.548       -0.0198604         143.576
0.608                   -3.11594         176.906         -43.5734        -137.424         -43.5737        -137.425       -0.0200909         143.497
0.609                   -3.17983          176.38         -43.4672        -139.299         -43.4675          -139.3       -0.0203253         143.418
0.61                    -3.24324         175.858         -43.3631        -141.172         -43.3634        -141.173       -0.0205635         143.339
0.611                    -3.3061         175.341          -43.261        -143.043         -43.2613        -143.043       -0.0208056         143.259
0.612                   -3.36834         174.827         -43.1609         -144.91         -43.1612         -144.91       -0.0210515          143.18
0.613                    -3.4299         174.315         -43.0626        -146.774         -43.0629        -146.774       -0.0213012           143.1
0.614                   -3.49073         173.806         -42.9663        -148.632         -42.9665        -148.632       -0.0215548          143.02
0.615                   -3.55078         173.299         -42.8717        -150.486          -42.872        -150.486       -0.0218121          142.94
0.616                   -3.61001         172.792         -42.7788        -152.335         -42.7791        -152.335       -0.0220733         142.859
0.617                    -3.6684         172.285         -42.6877        -154.178         -42.6879        -154.177       -0.0223382         142.778
0.618                   -3.72592         171.778         -42.5981        -156.014         -42.5983        -156.014       -0.0226068         142.698
0.619                   -3.78257         171.269           -42.51        -157.844         -42.5102        -157.843       -0.0228792         142.616
0.62                    -3.83835         170.758         -42.4234        -159.666         -42.4236        -159.666       -0.0231553         142.535
0.621                   -3.89326         170.244         -42.3381        -161.482         -42.3383        -161.481       -0.0234352         142.453
0.622                   -3.94733         169.726         -42.2541        -163.289         -42.2543        -163.289       -0.0237187         142.372
0.623                   -4.00057         169.204         -42.1713        -165.089         -42.1715        -165.089       -0.0240059         142.289
0.624                   -4.05303         168.676         -42.0896        -166.881         -42.0898         -166.88       -0.0242968         142.207
0.625                   -4.10476         168.142          -42.009        -168.665         -42.0092        -168.664       -0.0245914         142.125
0.626                   -4.15579         167.601         -41.9293         -170.44         -41.9295        -170.439       -0.0248897         142.042
0.627                    -4.2062         167.053         -41.8505        -172.207         -41.8506        -172.206       -0.0251917         141.959
0.628                   -4.25605         166.496         -41.7725        -173.965         -41.7726        -173.965       -0.0254973         141.875
0.629                   -4.30542         165.931         -41.6952        -175.715         -41.6953        -175.714       -0.0258067         141.792
0.63                    -4.35439         165.356         -41.6185        -177.457         -41.6186        -177.456       -0.0261197         141.708
0.631                   -4.40304          164.77         -41.5424         -179.19         -41.5424        -179.189       -0.0264366         141.624
0.632                   -4.45147         164.175         -41.4667         179.086         -41.4668         179.086       -0.0267571         141.539
0.633                   -4.49977         163.567         -41.3915         177.369         -41.3916          177.37       -0.0270815         141.455
0.634                   -4.54805         162.949         -41.3166         175.661         -41.3167         175.662       -0.0274097          141.37
0.635                   -4.59641         162.318          -41.242         173.961         -41.2421         173.962       -0.0277418         141.284
0.636                   -4.64496         161.675         -41.1677         172.269         -41.1677          172.27       -0.0280778         141.199
0.637                   -4.69381         161.018         -41.0934         170.584         -41.0934         170.585       -0.0284178         141.113
0.638                   -4.74308         160.349         -41.0193         168.907         -41.0193         168.908       -0.0287618         141.027
0.639                   -4.79288         159.666         -40.9452         167.237         -40.9451         167.238       -0.0291099          140.94
0.64                    -4.84335         158.969         -40.8711         165.575          -40.871         165.576       -0.0294622         140.854
0.641                   -4.89459         158.258         -40.7969         163.919         -40.7968          163.92       -0.0298187         140.767
0.642                   -4.94673         157.533         -40.7226          162.27         -40.7225          162.27       -0.0301795         140.679
0.643                    -4.9999         156.794         -40.6481         160.627         -40.6481         160.627       -0.0305446         140.592
0.644                   -5.05422          156.04         -40.5735          158.99         -40.5735          158.99       -0.0309143         140.504
0.645                   -5.10983         155.271         -40.4987         157.359         -40.4986         157.359       -0.0312886         140.415
0.646                   -5.16685         154.488         -40.4235         155.733         -40.4235         155.733       -0.0316676         140.327
0.647                   -5.22541         153.689         -40.3481         154.112         -40.3481         154.113       -0.0320513         140.238
0.648                   -5.28565         152.876         -40.2724         152.496         -40.2723         152.497         -0.03244         140.148
0.649                   -5.34771         152.048         -40.1963         150.885         -40.1962         150.885       -0.0328337         140.058
0.65                    -5.41171         151.206         -40.1199         149.278         -40.1198         149.278       -0.0332325         139.968
0.651                   -5.47781         150.348         -40.0431         147.675          -40.043         147.675       -0.0336366         139.878
0.652                   -5.54613         149.476         -39.9659         146.076         -39.9658         146.076       -0.0340462         139.787
0.653                   -5.61681          148.59         -39.8883          144.48         -39.8882          144.48       -0.0344613         139.696
0.654                   -5.69002         147.689         -39.8102         142.886         -39.8101         142.887       -0.0348821         139.605
0.655                   -5.76588         146.773         -39.7318         141.296         -39.7317         141.296       -0.0353088         139.513
0.656                   -5.84456         145.843         -39.6529         139.708         -39.6528         139.708       -0.0357415          139.42
0.657                   -5.92619           144.9         -39.5736         138.122         -39.5735         138.122       -0.0361804         139.328
0.658                   -6.01094         143.943         -39.4939         136.538         -39.4938         136.538       -0.0366257         139.235
0.659                   -6.09897         142.972         -39.4137         134.956         -39.4137         134.956       -0.0370775         139.141
0.66                    -6.19044         141.988         -39.3332         133.375         -39.3331         133.375        -0.037536         139.047
0.661                   -6.28552         140.991         -39.2522         131.795         -39.2522         131.795       -0.0380015         138.953
0.662                   -6.38436         139.982         -39.1709         130.215         -39.1708         130.215        -0.038474         138.858
0.663                   -6.48716          138.96         -39.0892         128.636         -39.0891         128.636       -0.0389539         138.763
0.664                   -6.59409         137.926         -39.0071         127.058          -39.007         127.057       -0.0394414         138.667
0.665                   -6.70534         136.882         -38.9247         125.479         -38.9246         125.479       -0.0399365         138.571
0.666                    -6.8211         135.826          -38.842           123.9         -38.8419           123.9       -0.0404397         138.474
0.667                   -6.94156          134.76          -38.759         122.321         -38.7589         122.321        -0.040951         138.377
0.668                   -7.06693         133.684         -38.6757         120.741         -38.6756         120.741       -0.0414708          138.28
0.669                   -7.19743         132.599         -38.5922          119.16         -38.5921          119.16       -0.0419993         138.182
0.67                    -7.33327         131.506         -38.5084         117.579         -38.5084         117.579       -0.0425367         138.084
0.671                   -7.47467         130.405         -38.4245         115.996         -38.4244         115.996       -0.0430834         137.985
0.672                   -7.62188         129.297         -38.3404         114.413         -38.3404         114.412       -0.0436395         137.885
0.673                   -7.77514         128.182         -38.2562         112.827         -38.2562         112.827       -0.0442054         137.785
0.674                   -7.93471         127.063          -38.172         111.241         -38.1719         111.241       -0.0447814         137.685
0.675                   -8.10085          125.94         -38.0876         109.653         -38.0876         109.653       -0.0453677         137.584
0.676                   -8.27385         124.813         -38.0033         108.063         -38.0032         108.063       -0.0459647         137.482
0.677                   -8.45399         123.685          -37.919         106.472         -37.9189         106.472       -0.0465726          137.38
0.678                   -8.64159         122.556         -37.8347         104.879         -37.8347         104.879       -0.0471919         137.278
0.679                   -8.83695         121.428         -37.7506         103.285         -37.7505         103.284       -0.0478228         137.175
0.68                    -9.04043         120.303         -37.6665         101.688         -37.6665         101.688       -0.0484657         137.071
0.681                   -9.25237         119.182         -37.5827         100.091         -37.5826          100.09       -0.0491209         136.966
0.682                   -9.47315         118.067          -37.499         98.4913          -37.499         98.4911       -0.0497889         136.862
0.683                   -9.70315         116.961         -37.4156         96.8905         -37.4156         96.8903         -0.05047         136.756
0.684                   -9.94281         115.865         -37.3325         95.2884         -37.3325         95.2882       -0.0511645          136.65
0.685                   -10.1926         114.783         -37.2497         93.6849         -37.2497         93.6847        -0.051873         136.543
0.686                   -10.4529         113.717         -37.1673         92.0804         -37.1673         92.0802       -0.0525958         136.436
0.687                   -10.7242          112.67         -37.0853         90.4749         -37.0852         90.4747       -0.0533333         136.328
0.688                   -11.0072         111.645         -37.0036         88.8686         -37.0036         88.8684        -0.054086         136.219
0.689                   -11.3023         110.648         -36.9224         87.2617         -36.9224         87.2615       -0.0548543          136.11
0.69                    -11.6101         109.682         -36.8417         85.6544         -36.8417         85.6542       -0.0556388             136
0.691                   -11.9313         108.753         -36.7615          84.047         -36.7615         84.0468       -0.0564398         135.889
0.692                   -12.2665         107.865         -36.6819         82.4396         -36.6818         82.4394        -0.057258         135.778
0.693                   -12.6165         107.027         -36.6027         80.8326         -36.6027         80.8325       -0.0580937         135.666
0.694                   -12.9821         106.245         -36.5242         79.2263         -36.5241         79.2261       -0.0589475         135.553
0.695                   -13.3639         105.527         -36.4462         77.6209         -36.4462         77.6207       -0.0598201         135.439
0.696                   -13.7629         104.885         -36.3688         76.0167         -36.3688         76.0166       -0.0607118         135.325
0.697                   -14.1799         104.329          -36.292         74.4141          -36.292          74.414       -0.0616233          135.21