! TOUCHSTONE file generated by CST MICROWAVE STUDIO
! Date and time: Fri Oct 30 07:54:46 2020
! Project name: Scenario_1_Circular_Tissue_out_of_Line.cst
! Parameters = {dy1=-85.885; L_HA=400; MT=2.54; Rad_Dielectric=30; Rad_Lower=7.3; Rad_Upper=30; a_HA=580; a_WG=246; b_HA=500; b_WG=121; c_HA=0; c_WG=187; d_feed=85; dx1=520; h_feed=15; h_lower=18; h_upper=40}
! Header version: 2018
! Port assignment regex: !\s*Touchstone port\s*([0-9]+)\s*=\s*(CST MWS port|CST DS port)\s*([0-9]+|Zmin|Zmax)\s*\(\"(.*)\"\)(\s*mode\s*([0-9]+))?.*
! Touchstone port assignment:
! Touchstone port 1 = CST MWS port 1 ("")
! Touchstone port 2 = CST MWS port 2 ("")
# GHz S DB R 50
0.5                    -0.132297        -122.495         -61.2549        -61.0443         -61.2549        -61.0443      -0.00735713         151.139
0.501                   -0.13861        -122.969         -61.0574        -62.5799         -61.0594        -62.5815      -0.00741367         151.073
0.502                  -0.145376        -123.444         -60.8596        -64.1255         -60.8634        -64.1282      -0.00747196         151.008
0.503                  -0.152583        -123.919         -60.6615        -65.6816         -60.6671        -65.6851      -0.00753199         150.942
0.504                  -0.160221        -124.395         -60.4632        -67.2487         -60.4703        -67.2526      -0.00759376         150.877
0.505                  -0.168279         -124.87         -60.2647        -68.8272         -60.2732        -68.8311      -0.00765726         150.811
0.506                  -0.176744        -125.346         -60.0661        -70.4175         -60.0759        -70.4213      -0.00772247         150.745
0.507                  -0.185604        -125.822         -59.8674        -72.0202         -59.8783        -72.0235      -0.00778939          150.68
0.508                  -0.194848        -126.299         -59.6687        -73.6358         -59.6807        -73.6382      -0.00785801         150.614
0.509                  -0.204463        -126.775         -59.4701        -75.2645         -59.4829         -75.266      -0.00792831         150.548
0.51                   -0.214437        -127.251         -59.2716        -76.9069         -59.2851        -76.9071      -0.00800028         150.482
0.511                  -0.224758        -127.728         -59.0733        -78.5633         -59.0874        -78.5621      -0.00807392         150.416
0.512                  -0.235411        -128.204         -58.8753        -80.2341         -58.8899        -80.2314       -0.0081492          150.35
0.513                  -0.246386        -128.681         -58.6777        -81.9198         -58.6926        -81.9154      -0.00822612         150.283
0.514                  -0.257669        -129.158         -58.4805        -83.6205         -58.4956        -83.6144      -0.00830465         150.217
0.515                  -0.269247        -129.634         -58.2838        -85.3367          -58.299        -85.3288      -0.00838479         150.151
0.516                  -0.281108        -130.111         -58.0877        -87.0686          -58.103        -87.0588      -0.00846652         150.084
0.517                   -0.29324        -130.588         -57.8924        -88.8164         -57.9076        -88.8049      -0.00854982         150.018
0.518                  -0.305629        -131.065         -57.6979        -90.5804         -57.7129        -90.5671      -0.00863468         149.951
0.519                  -0.318264        -131.542         -57.5043        -92.3608         -57.5191        -92.3457      -0.00872108         149.884
0.52                   -0.331133        -132.019         -57.3118        -94.1576         -57.3262        -94.1409        -0.008809         149.817
0.521                  -0.344223        -132.497         -57.1204        -95.9709         -57.1344        -95.9527      -0.00889842          149.75
0.522                  -0.357524        -132.975         -56.9304        -97.8009         -56.9438        -97.7813      -0.00898933         149.683
0.523                  -0.371023        -133.452         -56.7417        -99.6474         -56.7546        -99.6267      -0.00908171         149.616
0.524                   -0.38471        -133.931         -56.5545         -101.51         -56.5668        -101.489      -0.00917553         149.549
0.525                  -0.398573        -134.409         -56.3689         -103.39         -56.3806        -103.367      -0.00927078         149.482
0.526                  -0.412603        -134.888         -56.1852        -105.285         -56.1961        -105.262      -0.00936743         149.415
0.527                  -0.426789        -135.368         -56.0033        -107.197         -56.0134        -107.173      -0.00946547         149.347
0.528                  -0.441122        -135.848         -55.8234        -109.124         -55.8328          -109.1      -0.00956487          149.28
0.529                  -0.455591        -136.328         -55.6457        -111.066         -55.6542        -111.043      -0.00966562         149.212
0.53                   -0.470189        -136.809         -55.4703        -113.023         -55.4779        -113.001      -0.00976768         149.145
0.531                  -0.484907        -137.291         -55.2972        -114.994          -55.304        -114.973      -0.00987105         149.077
0.532                  -0.499736        -137.774         -55.1267        -116.979         -55.1326        -116.958      -0.00997569         149.009
0.533                  -0.514669        -138.257         -54.9587        -118.976         -54.9638        -118.958       -0.0100816         148.941
0.534                    -0.5297        -138.742         -54.7935        -120.986         -54.7977        -120.969       -0.0101887         148.873
0.535                  -0.544821        -139.227          -54.631        -123.007         -54.6344        -122.993        -0.010297         148.805
0.536                  -0.560027        -139.714         -54.4715        -125.039         -54.4741        -125.027       -0.0104066         148.737
0.537                  -0.575312        -140.202          -54.315         -127.08         -54.3168        -127.071       -0.0105172         148.668
0.538                  -0.590672        -140.691         -54.1615        -129.131         -54.1626        -129.123        -0.010629           148.6
0.539                  -0.606102        -141.181         -54.0112        -131.188         -54.0115        -131.184        -0.010742         148.531
0.54                   -0.621598        -141.673          -53.864        -133.252         -53.8637        -133.252        -0.010856         148.463
0.541                  -0.637157        -142.167           -53.72        -135.322         -53.7191        -135.325       -0.0109711         148.394
0.542                  -0.652777        -142.663         -53.5793        -137.396         -53.5778        -137.402       -0.0110873         148.325
0.543                  -0.668457         -143.16         -53.4418        -139.473         -53.4398        -139.483       -0.0112044         148.256
0.544                  -0.684194        -143.659         -53.3076        -141.552         -53.3051        -141.565       -0.0113226         148.187
0.545                  -0.699989         -144.16         -53.1766        -143.632         -53.1737        -143.649       -0.0114418         148.118
0.546                  -0.715843        -144.663         -53.0488        -145.712         -53.0456        -145.732       -0.0115619         148.049
0.547                  -0.731755        -145.169         -52.9242         -147.79         -52.9207        -147.814        -0.011683          147.98
0.548                  -0.747728        -145.677         -52.8027        -149.866          -52.799        -149.893        -0.011805          147.91
0.549                  -0.763764        -146.188         -52.6843        -151.938         -52.6804        -151.968       -0.0119279         147.841
0.55                   -0.779866        -146.701         -52.5688        -154.005         -52.5649        -154.038       -0.0120517         147.771
0.551                   -0.79604        -147.217         -52.4562        -156.066         -52.4522        -156.102       -0.0121763         147.701
0.552                  -0.812289        -147.735         -52.3464         -158.12         -52.3424         -158.16       -0.0123018         147.631
0.553                  -0.828619        -148.257         -52.2393        -160.167         -52.2353        -160.209       -0.0124282         147.561
0.554                  -0.845038        -148.782         -52.1347        -162.205         -52.1308        -162.249       -0.0125553         147.491
0.555                  -0.861552         -149.31         -52.0325        -164.234         -52.0288         -164.28       -0.0126833         147.421
0.556                   -0.87817        -149.842         -51.9327        -166.253          -51.929        -166.301       -0.0128121         147.351
0.557                  -0.894902        -150.377         -51.8349        -168.261         -51.8315         -168.31       -0.0129417          147.28
0.558                  -0.911757        -150.916         -51.7392        -170.258          -51.736        -170.308        -0.013072          147.21
0.559                  -0.928747        -151.458         -51.6453        -172.243         -51.6423        -172.294       -0.0132031         147.139
0.56                   -0.945885        -152.005         -51.5531        -174.216         -51.5504        -174.268        -0.013335         147.068
0.561                  -0.963183        -152.555         -51.4625        -176.176           -51.46        -176.228       -0.0134677         146.997
0.562                  -0.980657         -153.11         -51.3733        -178.124          -51.371        -178.176       -0.0136011         146.926
0.563                  -0.998322        -153.669         -51.2852         179.942         -51.2833          179.89       -0.0137353         146.855
0.564                   -1.01619        -154.232         -51.1983         178.021         -51.1966         177.969       -0.0138702         146.784
0.565                   -1.03429          -154.8         -51.1123         176.112         -51.1109         176.062       -0.0140059         146.712
0.566                   -1.05263        -155.373          -51.027         174.217         -51.0259         174.168       -0.0141424         146.641
0.567                   -1.07124        -155.951         -50.9424         172.336         -50.9415         172.287       -0.0142796         146.569
0.568                   -1.09013        -156.533         -50.8583         170.467         -50.8576          170.42       -0.0144177         146.497
0.569                   -1.10933        -157.121         -50.7745         168.611         -50.7741         168.565       -0.0145565         146.425
0.57                    -1.12887        -157.714          -50.691         166.767         -50.6908         166.723       -0.0146961         146.353
0.571                   -1.14876        -158.312         -50.6075         164.936         -50.6075         164.893       -0.0148366         146.281
0.572                   -1.16904        -158.915          -50.524         163.116         -50.5242         163.076       -0.0149779         146.209
0.573                   -1.18973        -159.525         -50.4404         161.308         -50.4407          161.27       -0.0151201         146.136
0.574                   -1.21086        -160.139         -50.3565         159.511          -50.357         159.475       -0.0152632         146.063
0.575                   -1.23247         -160.76         -50.2723         157.725         -50.2729         157.691       -0.0154072         145.991
0.576                   -1.25459        -161.387         -50.1876         155.948         -50.1883         155.916       -0.0155522         145.918
0.577                   -1.27724        -162.019         -50.1024         154.182         -50.1031         154.152       -0.0156981         145.845
0.578                   -1.30048        -162.657         -50.0165         152.424         -50.0173         152.397        -0.015845         145.771
0.579                   -1.32432        -163.302           -49.93         150.675         -49.9309          150.65        -0.015993         145.698
0.58                    -1.34882        -163.953         -49.8427         148.934         -49.8436         148.911        -0.016142         145.624
0.581                   -1.37401         -164.61         -49.7545           147.2         -49.7555         147.179       -0.0162922         145.551
0.582                   -1.39994        -165.273         -49.6655         145.473         -49.6665         145.454       -0.0164435         145.477
0.583                   -1.42664        -165.943         -49.5756         143.752         -49.5765         143.735        -0.016596         145.403
0.584                   -1.45417        -166.619         -49.4847         142.037         -49.4856         142.021       -0.0167498         145.329
0.585                   -1.48256        -167.302         -49.3928         140.326         -49.3937         140.313       -0.0169049         145.254
0.586                   -1.51187        -167.991         -49.2999          138.62         -49.3007         138.608       -0.0170614          145.18
0.587                   -1.54215        -168.686          -49.206         136.918         -49.2067         136.907       -0.0172192         145.105
0.588                   -1.57344        -169.388         -49.1109         135.218         -49.1117         135.209       -0.0173786          145.03
0.589                    -1.6058        -170.097         -49.0149         133.521         -49.0155         133.513       -0.0175394         144.955
0.59                    -1.63928        -170.811         -48.9177         131.826         -48.9183         131.819       -0.0177018          144.88
0.591                   -1.67393        -171.532         -48.8195         130.132           -48.82         130.127       -0.0178659         144.805
0.592                   -1.70982        -172.259         -48.7202         128.439         -48.7207         128.434       -0.0180317         144.729
0.593                   -1.74699        -172.992         -48.6199         126.746         -48.6203         126.742       -0.0181992         144.654
0.594                    -1.7855        -173.731         -48.5185         125.053         -48.5188          125.05       -0.0183686         144.578
0.595                   -1.82541        -174.476         -48.4162         123.358         -48.4164         123.356         -0.01854         144.502
0.596                   -1.86679        -175.226         -48.3128         121.662          -48.313         121.661       -0.0187132         144.425
0.597                   -1.90967        -175.982         -48.2085         119.964         -48.2087         119.963       -0.0188886         144.349
0.598                   -1.95414        -176.743         -48.1033         118.264         -48.1034         118.263       -0.0190661         144.272
0.599                   -2.00023        -177.509         -47.9973         116.561         -47.9974          116.56       -0.0192457         144.195
0.6                     -2.04802        -178.279         -47.8904         114.854         -47.8904         114.854       -0.0194277         144.118
0.601                   -2.09754        -179.054         -47.7828         113.144         -47.7828         113.144        -0.019612         144.041
0.602                   -2.14887        -179.833         -47.6745          111.43         -47.6744          111.43       -0.0197987         143.964
0.603                   -2.20206         179.385         -47.5654         109.711         -47.5654         109.711        -0.019988         143.886
0.604                   -2.25715         178.599         -47.4558         107.987         -47.4558         107.987       -0.0201798         143.808
0.605                    -2.3142          177.81         -47.3457         106.258         -47.3456         106.259       -0.0203743          143.73
0.606                   -2.37325         177.019         -47.2351         104.524          -47.235         104.525       -0.0205715         143.652
0.607                   -2.43436         176.226          -47.124         102.785          -47.124         102.785       -0.0207716         143.573
0.608                   -2.49755         175.432         -47.0127         101.039         -47.0127         101.039       -0.0209746         143.495
0.609                   -2.56287         174.637          -46.901          99.288         -46.9011          99.288       -0.0211806         143.416
0.61                    -2.63035         173.841         -46.7892         97.5306         -46.7893         97.5305       -0.0213897         143.337
0.611                   -2.70002         173.046         -46.6772         95.7669         -46.6773         95.7667       -0.0216019         143.258
0.612                    -2.7719         172.251         -46.5651          93.997         -46.5653         93.9967       -0.0218174         143.178
0.613                   -2.84602         171.458         -46.4531         92.2208         -46.4534         92.2204       -0.0220363         143.098
0.614                   -2.92238         170.668         -46.3412         90.4382         -46.3415         90.4377       -0.0222585         143.018
0.615                   -3.00099          169.88         -46.2294         88.6494         -46.2298         88.6488       -0.0224842         142.938
0.616                   -3.08185         169.096         -46.1178         86.8543         -46.1183         86.8537       -0.0227135         142.858
0.617                   -3.16495         168.315         -46.0066         85.0531         -46.0072         85.0525       -0.0229465         142.777
0.618                   -3.25028          167.54         -45.8957         83.2458         -45.8964         83.2452       -0.0231832         142.696
0.619                   -3.33781         166.771         -45.7853         81.4327          -45.786         81.4322       -0.0234238         142.615
0.62                    -3.42752         166.008         -45.6753         79.6138         -45.6761         79.6134       -0.0236683         142.533
0.621                   -3.51936         165.252         -45.5659         77.7895         -45.5668         77.7892       -0.0239168         142.452
0.622                   -3.61329         164.503         -45.4572           75.96         -45.4581         75.9598       -0.0241693          142.37
0.623                   -3.70926         163.763         -45.3491         74.1255         -45.3501         74.1255       -0.0244261         142.288
0.624                    -3.8072         163.033         -45.2417         72.2863         -45.2428         72.2865       -0.0246871         142.205
0.625                   -3.90703         162.312         -45.1351         70.4428         -45.1363         70.4432       -0.0249524         142.123
0.626                   -4.00868         161.601         -45.0294         68.5952         -45.0306         68.5959       -0.0252222          142.04
0.627                   -4.11207         160.902         -44.9245          66.744         -44.9258         66.7449       -0.0254964         141.957
0.628                   -4.21709         160.214         -44.8205         64.8894         -44.8219         64.8907       -0.0257753         141.873
0.629                   -4.32364         159.538         -44.7175          63.032         -44.7189         63.0335       -0.0260588         141.789
0.63                    -4.43162         158.875         -44.6154          61.172         -44.6168         61.1739        -0.026347         141.705
0.631                   -4.54089         158.225         -44.5143         59.3099         -44.5158         59.3122       -0.0266401         141.621
0.632                   -4.65136         157.588         -44.4143         57.4462         -44.4157         57.4488       -0.0269382         141.537
0.633                   -4.76288         156.964         -44.3152         55.5812         -44.3167         55.5841       -0.0272412         141.452
0.634                   -4.87532         156.355         -44.2172         53.7154         -44.2187         53.7186       -0.0275493         141.367
0.635                   -4.98854         155.759         -44.1202         51.8491         -44.1217         51.8527       -0.0278626         141.281
0.636                   -5.10242         155.177         -44.0243         49.9829         -44.0258         49.9868       -0.0281812         141.195
0.637                    -5.2168          154.61         -43.9294         48.1171         -43.9309         48.1213       -0.0285051         141.109
0.638                   -5.33154         154.057         -43.8355         46.2522          -43.837         46.2567       -0.0288345         141.023
0.639                   -5.44651         153.517         -43.7427         44.3886         -43.7441         44.3933       -0.0291693         140.937
0.64                    -5.56155         152.992         -43.6508         42.5266         -43.6522         42.5315       -0.0295098          140.85
0.641                   -5.67654         152.479         -43.5599         40.6666         -43.5613         40.6718        -0.029856         140.762
0.642                   -5.79133          151.98           -43.47         38.8091         -43.4713         38.8144       -0.0302079         140.675
0.643                   -5.90579         151.493         -43.3809         36.9543         -43.3822         36.9598       -0.0305658         140.587
0.644                   -6.01979         151.018         -43.2928         35.1026          -43.294         35.1082       -0.0309296         140.499
0.645                   -6.13322         150.555         -43.2055         33.2544         -43.2066           33.26       -0.0312995          140.41
0.646                   -6.24596         150.103          -43.119         31.4098         -43.1201         31.4155       -0.0316755         140.321
0.647                    -6.3579          149.66         -43.0333         29.5692         -43.0343          29.575       -0.0320578         140.232
0.648                   -6.46895         149.227         -42.9482         27.7329         -42.9492         27.7386       -0.0324464         140.143
0.649                   -6.57902         148.802         -42.8639          25.901         -42.8648         25.9067       -0.0328415         140.053
0.65                    -6.68803         148.384         -42.7802         24.0739         -42.7811         24.0795       -0.0332431         139.963
0.651                   -6.79593         147.974         -42.6971         22.2515         -42.6979          22.257       -0.0336514         139.872
0.652                   -6.90265         147.568         -42.6145         20.4342         -42.6152         20.4396       -0.0340664         139.781
0.653                   -7.00817         147.167         -42.5324          18.622          -42.533         18.6272       -0.0344883          139.69
0.654                   -7.11244         146.769         -42.4507         16.8151         -42.4513         16.8201       -0.0349171         139.598
0.655                   -7.21547         146.374         -42.3694         15.0136         -42.3699         15.0183        -0.035353         139.506
0.656                   -7.31725          145.98         -42.2884         13.2174         -42.2888         13.2219       -0.0357962         139.413
0.657                   -7.41779         145.586         -42.2076         11.4267          -42.208         11.4309       -0.0362466         139.321
0.658                   -7.51712         145.191         -42.1271         9.64152         -42.1275         9.64543       -0.0367045         139.227
0.659                   -7.61529         144.793         -42.0467         7.86175          -42.047         7.86536       -0.0371699         139.134
0.66                    -7.71235         144.393         -41.9665         6.08742         -41.9667         6.09072        -0.037643          139.04
0.661                   -7.80837         143.988         -41.8863         4.31849         -41.8865         4.32145       -0.0381238         138.945
0.662                   -7.90344         143.578         -41.8061         2.55488         -41.8063         2.55751       -0.0386127          138.85
0.663                   -7.99764         143.162         -41.7259        0.796507          -41.726        0.798796       -0.0391096         138.755
0.664                   -8.09109         142.738         -41.6455       -0.956728         -41.6457       -0.954782       -0.0396147         138.659
0.665                    -8.1839         142.307         -41.5651        -2.70495         -41.5652        -2.70334       -0.0401281         138.563
0.666                   -8.27621         141.866         -41.4845        -4.44829         -41.4845        -4.44702       -0.0406501         138.466
0.667                   -8.36817         141.415         -41.4036        -6.18691         -41.4037        -6.18597       -0.0411807         138.369
0.668                   -8.45992         140.954         -41.3225        -7.92097         -41.3226        -7.92036       -0.0417201         138.272
0.669                   -8.55162         140.481         -41.2412        -9.65065         -41.2411        -9.65035       -0.0422686         138.174
0.67                    -8.64346         139.996         -41.1594        -11.3761         -41.1594        -11.3761       -0.0428261         138.075
0.671                   -8.73561         139.498         -41.0773        -13.0977         -41.0773        -13.0979        -0.043393         137.976
0.672                   -8.82827         138.988         -40.9949        -14.8154         -40.9948         -14.816       -0.0439694         137.877
0.673                   -8.92164         138.463         -40.9119        -16.5296         -40.9119        -16.5304       -0.0445554         137.777
0.674                   -9.01592         137.925         -40.8286        -18.2405         -40.8286        -18.2416       -0.0451514         137.677
0.675                   -9.11134         137.373         -40.7448        -19.9483         -40.7447        -19.9496       -0.0457574         137.576
0.676                   -9.20811         136.805         -40.6604        -21.6533         -40.6604        -21.6548       -0.0463737         137.474
0.677                   -9.30646         136.224         -40.5756        -23.3557         -40.5755        -23.3574       -0.0470005         137.372
0.678                   -9.40664         135.627         -40.4902        -25.0558         -40.4902        -25.0576        -0.047638          137.27
0.679                   -9.50888         135.016         -40.4042        -26.7539         -40.4042        -26.7558       -0.0482864         137.166
0.68                    -9.61344          134.39         -40.3178        -28.4501         -40.3178        -28.4521        -0.048946         137.063
0.681                   -9.72058          133.75         -40.2307        -30.1448         -40.2307        -30.1469       -0.0496171         136.958
0.682                   -9.83055         133.096          -40.143        -31.8382         -40.1431        -31.8404       -0.0502998         136.854
0.683                   -9.94363         132.428         -40.0548        -33.5307         -40.0549        -33.5329       -0.0509945         136.748
0.684                   -10.0601         131.746          -39.966        -35.2223         -39.9661        -35.2246       -0.0517014         136.642
0.685                   -10.1802         131.052         -39.8766        -36.9135         -39.8767        -36.9158       -0.0524208         136.536
0.686                   -10.3043         130.346         -39.7867        -38.6045         -39.7867        -38.6067        -0.053153         136.428
0.687                   -10.4327         129.628         -39.6961        -40.2955         -39.6962        -40.2977       -0.0538984         136.321
0.688                   -10.5656           128.9          -39.605        -41.9867         -39.6051        -41.9889       -0.0546572         136.212
0.689                   -10.7034         128.163         -39.5133        -43.6785         -39.5134        -43.6806       -0.0554297         136.103
0.69                    -10.8463         127.418         -39.4211         -45.371         -39.4212         -45.373       -0.0562164         135.993
0.691                   -10.9948         126.666         -39.3284        -47.0645         -39.3285        -47.0664       -0.0570176         135.883
0.692                   -11.1491         125.909         -39.2352        -48.7592         -39.2353         -48.761       -0.0578336         135.771
0.693                   -11.3096         125.147         -39.1414        -50.4553         -39.1415         -50.457       -0.0586649          135.66
0.694                   -11.4767         124.385         -39.0472         -52.153         -39.0473        -52.1545       -0.0595119         135.547
0.695                   -11.6506         123.622         -38.9526        -53.8524         -38.9527        -53.8539       -0.0603749         135.434
0.696                   -11.8318         122.862         -38.8575        -55.5539         -38.8576        -55.5551       -0.0612545          135.32
0.697                   -12.0206         122.106         -38.7621        -57.2574         -38.7622        -57.2585       -0.0621511         135.205