! TOUCHSTONE file generated by CST MICROWAVE STUDIO
! Date and time: Mon Oct 26 12:26:47 2020
! Project name: Scenario_1_Circular_Tissue_out_of_Line.cst
! Parameters = {dy1=-85.885; L_HA=400; MT=2.54; Rad_Dielectric=30; Rad_Lower=7.3; Rad_Upper=30; a_HA=580; a_WG=246; b_HA=500; b_WG=121; c_HA=0; c_WG=187; d_feed=85; dx1=866; h_feed=15; h_lower=18; h_upper=40}
! Header version: 2018
! Port assignment regex: !\s*Touchstone port\s*([0-9]+)\s*=\s*(CST MWS port|CST DS port)\s*([0-9]+|Zmin|Zmax)\s*\(\"(.*)\"\)(\s*mode\s*([0-9]+))?.*
! Touchstone port assignment:
! Touchstone port 1 = CST MWS port 1 ("")
! Touchstone port 2 = CST MWS port 2 ("")
# GHz S DB R 50
0.5                     -0.14311        -122.448         -62.7984         99.0346         -62.7986         99.0358      -0.00742384         151.138
0.501                  -0.152284         -122.89         -62.5975         96.9859         -62.5978         96.9865      -0.00749477         151.073
0.502                  -0.161511        -123.333         -62.3974         94.9137         -62.3978         94.9137      -0.00756673         151.008
0.503                  -0.170789        -123.776         -62.1982         92.8181         -62.1988         92.8175      -0.00763974         150.942
0.504                  -0.180119        -124.221         -62.0001         90.6992         -62.0008         90.6982      -0.00771378         150.877
0.505                    -0.1895        -124.667         -61.8032         88.5574          -61.804          88.556      -0.00778885         150.811
0.506                  -0.198933        -125.114         -61.6077         86.3929         -61.6086         86.3913      -0.00786494         150.745
0.507                  -0.208418        -125.562         -61.4137         84.2062         -61.4147         84.2043      -0.00794205          150.68
0.508                  -0.217953        -126.012         -61.2214         81.9978         -61.2225         81.9957      -0.00802016         150.614
0.509                  -0.227541        -126.462         -61.0309         79.7681         -61.0321         79.7658      -0.00809928         150.548
0.51                   -0.237181        -126.914         -60.8424         77.5178         -60.8437         77.5154      -0.00817938         150.482
0.511                  -0.246874        -127.368          -60.656         75.2475         -60.6573         75.2452      -0.00826046         150.416
0.512                   -0.25662        -127.823         -60.4719         72.9582         -60.4733         72.9558      -0.00834251          150.35
0.513                  -0.266421        -128.279         -60.2901         70.6505         -60.2915         70.6482      -0.00842551         150.284
0.514                  -0.276278        -128.736         -60.1109         68.3254         -60.1123         68.3232      -0.00850945         150.218
0.515                  -0.286191        -129.196         -59.9343         65.9839         -59.9357         65.9819      -0.00859432         150.151
0.516                  -0.296162        -129.656         -59.7604          63.627         -59.7619         63.6252      -0.00868009         150.085
0.517                  -0.306193        -130.119         -59.5893         61.2559         -59.5908         61.2542      -0.00876674         150.019
0.518                  -0.316285        -130.583         -59.4212         58.8717         -59.4226         58.8702      -0.00885427         149.952
0.519                  -0.326441        -131.049          -59.256         56.4755         -59.2575         56.4742      -0.00894265         149.885
0.52                   -0.336662        -131.516         -59.0939         54.0687         -59.0953         54.0677      -0.00903186         149.819
0.521                  -0.346951        -131.986         -58.9348         51.6526         -58.9363         51.6517      -0.00912187         149.752
0.522                  -0.357311        -132.457         -58.7789         49.2283         -58.7803         49.2277      -0.00921267         149.685
0.523                  -0.367745         -132.93         -58.6262         46.7973         -58.6275         46.7969      -0.00930423         149.618
0.524                  -0.378256        -133.406         -58.4765         44.3609         -58.4778         44.3606      -0.00939652         149.551
0.525                  -0.388847        -133.883           -58.33         41.9203         -58.3313         41.9203      -0.00948952         149.484
0.526                  -0.399523        -134.363         -58.1866         39.4769         -58.1878          39.477      -0.00958321         149.417
0.527                  -0.410287        -134.844         -58.0463         37.0319         -58.0474         37.0322      -0.00967756         149.349
0.528                  -0.421145        -135.328          -57.909         34.5866           -57.91         34.5871      -0.00977255         149.282
0.529                    -0.4321        -135.815         -57.7746         32.1423         -57.7756         32.1429      -0.00986814         149.214
0.53                   -0.443158        -136.303          -57.643         29.6999          -57.644         29.7007      -0.00996431         149.147
0.531                  -0.454326        -136.795         -57.5142         27.2608         -57.5151         27.2616        -0.010061         149.079
0.532                  -0.465608        -137.288         -57.3881         24.8258         -57.3889         24.8267       -0.0101583         149.011
0.533                  -0.477012        -137.785         -57.2645          22.396         -57.2652         22.3969       -0.0102561         148.944
0.534                  -0.488544        -138.284         -57.1433         19.9722         -57.1439         19.9731       -0.0103543         148.876
0.535                  -0.500213        -138.786         -57.0243         17.5552         -57.0249         17.5562       -0.0104531         148.808
0.536                  -0.512025         -139.29         -56.9075         15.1459          -56.908         15.1468       -0.0105522         148.739
0.537                   -0.52399        -139.798         -56.7927         12.7447         -56.7932         12.7456       -0.0106518         148.671
0.538                  -0.536118        -140.308         -56.6798         10.3524         -56.6801         10.3532       -0.0107518         148.603
0.539                  -0.548417        -140.822         -56.5685         7.96928         -56.5688         7.97003       -0.0108522         148.534
0.54                   -0.560898        -141.338         -56.4588         5.59584          -56.459          5.5965       -0.0109529         148.466
0.541                  -0.573573        -141.858         -56.3504         3.23237         -56.3506         3.23293       -0.0110541         148.397
0.542                  -0.586453        -142.381         -56.2432        0.879088         -56.2434        0.879532       -0.0111556         148.329
0.543                  -0.599551        -142.908         -56.1372        -1.46387         -56.1372        -1.46354       -0.0112575          148.26
0.544                   -0.61288        -143.438          -56.032        -3.79642          -56.032        -3.79623       -0.0113597         148.191
0.545                  -0.626454        -143.971         -55.9276        -6.11859         -55.9276        -6.11853       -0.0114623         148.122
0.546                   -0.64029        -144.508         -55.8239        -8.43045         -55.8238        -8.43052       -0.0115653         148.053
0.547                  -0.654401        -145.049         -55.7206        -10.7321         -55.7205        -10.7323       -0.0116686         147.983
0.548                  -0.668807        -145.593         -55.6177        -13.0239         -55.6176        -13.0242       -0.0117724         147.914
0.549                  -0.683523        -146.142          -55.515        -15.3059         -55.5149        -15.3064       -0.0118766         147.844
0.55                    -0.69857        -146.694         -55.4125        -17.5786         -55.4123        -17.5792       -0.0119812         147.775
0.551                  -0.713967         -147.25         -55.3099        -19.8423         -55.3096         -19.843       -0.0120863         147.705
0.552                  -0.729734         -147.81         -55.2071        -22.0975         -55.2069        -22.0983       -0.0121919         147.635
0.553                  -0.745895        -148.374         -55.1042        -24.3445         -55.1039        -24.3454        -0.012298         147.565
0.554                  -0.762472        -148.942         -55.0009        -26.5839         -55.0007        -26.5849       -0.0124048         147.495
0.555                  -0.779489        -149.514         -54.8972        -28.8163          -54.897        -28.8174       -0.0125121         147.425
0.556                  -0.796973        -150.091         -54.7931        -31.0421         -54.7928        -31.0433       -0.0126201         147.355
0.557                  -0.814948        -150.672         -54.6883        -33.2621         -54.6881        -33.2633       -0.0127288         147.284
0.558                  -0.833444        -151.257          -54.583        -35.4767         -54.5827         -35.478       -0.0128383         147.214
0.559                  -0.852489        -151.846          -54.477        -37.6867         -54.4767         -37.688       -0.0129487         147.143
0.56                   -0.872112         -152.44         -54.3702        -39.8927         -54.3699         -39.894       -0.0130599         147.072
0.561                  -0.892346        -153.038         -54.2627        -42.0953         -54.2624        -42.0966       -0.0131721         147.001
0.562                  -0.913221         -153.64         -54.1544        -44.2953         -54.1541        -44.2965       -0.0132853          146.93
0.563                  -0.934771        -154.247         -54.0452        -46.4932          -54.045        -46.4944       -0.0133995         146.859
0.564                  -0.957029        -154.857         -53.9352        -48.6898          -53.935         -48.691        -0.013515         146.788
0.565                  -0.980031        -155.472         -53.8244        -50.8858         -53.8242        -50.8869       -0.0136316         146.716
0.566                   -1.00381        -156.091         -53.7127        -53.0817         -53.7125        -53.0828       -0.0137496         146.645
0.567                   -1.02841        -156.714         -53.6002        -55.2784            -53.6        -55.2794       -0.0138689         146.573
0.568                   -1.05385        -157.341         -53.4869        -57.4764         -53.4867        -57.4774       -0.0139897         146.501
0.569                   -1.08018        -157.972         -53.3727        -59.6765         -53.3725        -59.6773        -0.014112         146.429
0.57                    -1.10743        -158.606         -53.2578        -61.8791         -53.2576        -61.8798       -0.0142359         146.357
0.571                   -1.13564        -159.244         -53.1421         -64.085          -53.142        -64.0856       -0.0143614         146.284
0.572                   -1.16484        -159.885         -53.0258        -66.2947         -53.0256        -66.2952       -0.0144887         146.212
0.573                   -1.19507         -160.53         -52.9088        -68.5088         -52.9086        -68.5092       -0.0146178         146.139
0.574                   -1.22635        -161.177         -52.7912        -70.7278         -52.7911        -70.7281       -0.0147487         146.067
0.575                   -1.25872        -161.827         -52.6731        -72.9522          -52.673        -72.9524       -0.0148817         145.994
0.576                   -1.29221        -162.479         -52.5545        -75.1826         -52.5544        -75.1827       -0.0150166         145.921
0.577                   -1.32683        -163.133         -52.4356        -77.4193         -52.4354        -77.4193       -0.0151537         145.847
0.578                   -1.36262        -163.789         -52.3163        -79.6628         -52.3162        -79.6627       -0.0152928         145.774
0.579                   -1.39959        -164.446         -52.1968        -81.9134         -52.1967        -81.9132       -0.0154342         145.701
0.58                    -1.43775        -165.104         -52.0772        -84.1715          -52.077        -84.1712       -0.0155779         145.627
0.581                   -1.47711        -165.763         -51.9575        -86.4372         -51.9574        -86.4368       -0.0157239         145.553
0.582                   -1.51767        -166.422         -51.8379        -88.7109         -51.8378        -88.7104       -0.0158724         145.479
0.583                   -1.55944         -167.08         -51.7184        -90.9927         -51.7183        -90.9922       -0.0160232         145.405
0.584                    -1.6024        -167.738         -51.5992        -93.2828         -51.5991        -93.2822       -0.0161766         145.331
0.585                   -1.64653        -168.395         -51.4803        -95.5811         -51.4802        -95.5805       -0.0163325         145.256
0.586                   -1.69182        -169.051         -51.3619        -97.8878         -51.3618        -97.8871        -0.016491         145.182
0.587                   -1.73823        -169.704          -51.244        -100.203         -51.2439        -100.202       -0.0166522         145.107
0.588                   -1.78573        -170.355         -51.1268        -102.526         -51.1267        -102.525        -0.016816         145.032
0.589                   -1.83426        -171.004         -51.0104        -104.857         -51.0103        -104.856       -0.0169826         144.957
0.59                    -1.88379        -171.649         -50.8948        -107.196         -50.8947        -107.195        -0.017152         144.881
0.591                   -1.93424        -172.291         -50.7802        -109.543         -50.7801        -109.542       -0.0173241         144.806
0.592                   -1.98555        -172.929         -50.6666        -111.896         -50.6665        -111.896       -0.0174991          144.73
0.593                   -2.03765        -173.563         -50.5542        -114.257         -50.5541        -114.256       -0.0176769         144.654
0.594                   -2.09046        -174.193          -50.443        -116.624         -50.4429        -116.623       -0.0178577         144.578
0.595                   -2.14389        -174.819         -50.3331        -118.997          -50.333        -118.996       -0.0180413         144.502
0.596                   -2.19785         -175.44         -50.2246        -121.376         -50.2245        -121.375       -0.0182279         144.426
0.597                   -2.25226        -176.057         -50.1175        -123.759         -50.1175        -123.759       -0.0184174         144.349
0.598                   -2.30703        -176.669          -50.012        -126.147         -50.0119        -126.146         -0.01861         144.273
0.599                   -2.36205        -177.278          -49.908        -128.538         -49.9079        -128.538       -0.0188055         144.196
0.6                     -2.41724        -177.882         -49.8056        -130.933         -49.8056        -130.933        -0.019004         144.119
0.601                   -2.47251        -178.482         -49.7049         -133.33         -49.7048         -133.33       -0.0192056         144.041
0.602                   -2.52778         -179.08         -49.6058        -135.729         -49.6057        -135.728       -0.0194102         143.964
0.603                   -2.58295        -179.674         -49.5084        -138.128         -49.5083        -138.128       -0.0196178         143.886
0.604                   -2.63796         179.735         -49.4126        -140.528         -49.4126        -140.528       -0.0198285         143.808
0.605                   -2.69274         179.145         -49.3186        -142.928         -49.3186        -142.928       -0.0200423          143.73
0.606                   -2.74724         178.557         -49.2262        -145.327         -49.2262        -145.327       -0.0202591         143.652
0.607                   -2.80139         177.969         -49.1355        -147.724         -49.1355        -147.724       -0.0204791         143.574
0.608                   -2.85517         177.382         -49.0464        -150.118         -49.0464        -150.118       -0.0207021         143.495
0.609                   -2.90854         176.794         -48.9589         -152.51         -48.9589         -152.51       -0.0209282         143.416
0.61                    -2.96148         176.204         -48.8729        -154.898          -48.873        -154.898       -0.0211574         143.337
0.611                     -3.014         175.612         -48.7884        -157.282         -48.7885        -157.282       -0.0213897         143.258
0.612                    -3.0661         175.017         -48.7054        -159.661         -48.7055        -159.661       -0.0216252         143.178
0.613                   -3.11779         174.419         -48.6237        -162.036         -48.6239        -162.035       -0.0218637         143.099
0.614                    -3.1691         173.816         -48.5434        -164.404         -48.5435        -164.404       -0.0221054         143.019
0.615                   -3.22008         173.208         -48.4642        -166.767         -48.4644        -166.767       -0.0223503         142.939
0.616                   -3.27076         172.593         -48.3863        -169.123         -48.3865        -169.123       -0.0225984         142.858
0.617                   -3.32122         171.972         -48.3094        -171.473         -48.3096        -171.473       -0.0228496         142.778
0.618                   -3.37152         171.344         -48.2335        -173.816         -48.2337        -173.815        -0.023104         142.697
0.619                   -3.42174         170.708         -48.1586        -176.152         -48.1587        -176.151       -0.0233617         142.616
0.62                    -3.47197         170.063         -48.0844         -178.48         -48.0846         -178.48       -0.0236226         142.535
0.621                   -3.52229         169.409          -48.011         179.199         -48.0112         179.199       -0.0238868         142.453
0.622                   -3.57282         168.745         -47.9383         176.885         -47.9385         176.885       -0.0241543         142.371
0.623                   -3.62365         168.071         -47.8662         174.578         -47.8664         174.579       -0.0244252         142.289
0.624                    -3.6749         167.386         -47.7946         172.279         -47.7948         172.279       -0.0246995         142.207
0.625                   -3.72668         166.691         -47.7235         169.987         -47.7237         169.987       -0.0249773         142.124
0.626                   -3.77913         165.984         -47.6527         167.702         -47.6529         167.703       -0.0252585         142.042
0.627                   -3.83235         165.266         -47.5822         165.424         -47.5824         165.425       -0.0255433         141.959
0.628                   -3.88649         164.535          -47.512         163.153         -47.5121         163.154       -0.0258318         141.875
0.629                   -3.94168         163.793         -47.4419         160.888          -47.442         160.889       -0.0261239         141.792
0.63                    -3.99804         163.039         -47.3719          158.63          -47.372         158.631       -0.0264198         141.708
0.631                   -4.05573         162.273         -47.3021         156.378         -47.3021         156.379       -0.0267195         141.624
0.632                   -4.11487         161.494         -47.2322         154.132         -47.2323         154.133       -0.0270232         141.539
0.633                   -4.17561         160.703         -47.1623         151.891         -47.1624         151.892       -0.0273309         141.455
0.634                    -4.2381           159.9         -47.0924         149.656         -47.0924         149.657       -0.0276426          141.37
0.635                   -4.30247         159.085         -47.0224         147.425         -47.0224         147.426       -0.0279586         141.285
0.636                   -4.36889         158.258         -46.9523         145.199         -46.9523           145.2       -0.0282789         141.199
0.637                   -4.43749         157.419          -46.882         142.977          -46.882         142.978       -0.0286036         141.113
0.638                   -4.50843         156.569         -46.8117          140.76         -46.8116          140.76       -0.0289328         141.027
0.639                   -4.58185         155.707         -46.7411         138.545         -46.7411         138.546       -0.0292666         140.941
0.64                    -4.65792         154.835         -46.6705         136.334         -46.6704         136.334       -0.0296052         140.854
0.641                   -4.73678         153.953         -46.5996         134.126         -46.5995         134.126       -0.0299486         140.767
0.642                   -4.81859          153.06         -46.5287         131.921         -46.5285         131.921       -0.0302971         140.679
0.643                   -4.90351         152.159         -46.4576         129.718         -46.4574         129.718       -0.0306507         140.592
0.644                   -4.99168         151.248         -46.3864         127.517         -46.3862         127.517       -0.0310095         140.504
0.645                   -5.08328         150.329          -46.315         125.318         -46.3149         125.318       -0.0313738         140.415
0.646                   -5.17844         149.403         -46.2436         123.121         -46.2434          123.12       -0.0317436         140.327
0.647                   -5.27733         148.471         -46.1722         120.925          -46.172         120.924        -0.032119         140.237
0.648                   -5.38011         147.532         -46.1007         118.731         -46.1005          118.73       -0.0325003         140.148
0.649                   -5.48692         146.589         -46.0292         116.537          -46.029         116.536       -0.0328875         140.058
0.65                    -5.59792         145.642         -45.9577         114.345         -45.9575         114.344       -0.0332809         139.968
0.651                   -5.71326         144.693         -45.8863         112.154         -45.8861         112.152       -0.0336805         139.878
0.652                   -5.83308         143.741          -45.815         109.964         -45.8148         109.962       -0.0340866         139.787
0.653                   -5.95754          142.79         -45.7439         107.774         -45.7437         107.772       -0.0344993         139.696
0.654                   -6.08676         141.839         -45.6729         105.585         -45.6727         105.583       -0.0349187         139.604
0.655                   -6.22089         140.891         -45.6021         103.398         -45.6019         103.395        -0.035345         139.512
0.656                   -6.36005         139.948         -45.5315         101.211         -45.5314         101.209       -0.0357784          139.42
0.657                   -6.50436          139.01         -45.4612         99.0249         -45.4611         99.0226        -0.036219         139.327
0.658                   -6.65394         138.079         -45.3912         96.8402         -45.3911         96.8379       -0.0366671         139.234
0.659                   -6.80889         137.158         -45.3216         94.6568         -45.3215         94.6544       -0.0371227          139.14
0.66                    -6.96929         136.248         -45.2523         92.4748         -45.2522         92.4724       -0.0375862         139.046
0.661                   -7.13524         135.352         -45.1834         90.2945         -45.1833          90.292       -0.0380576         138.952
0.662                   -7.30678         134.471         -45.1149          88.116         -45.1148         88.1135       -0.0385372         138.857
0.663                   -7.48398         133.609         -45.0468         85.9396         -45.0468         85.9371       -0.0390251         138.762
0.664                   -7.66686         132.767         -44.9792         83.7655         -44.9792          83.763       -0.0395215         138.666
0.665                   -7.85543         131.948          -44.912          81.594         -44.9121         81.5916       -0.0400268          138.57
0.666                   -8.04967         131.155         -44.8454         79.4253         -44.8454          79.423       -0.0405409         138.474
0.667                   -8.24955          130.39         -44.7791         77.2599         -44.7792         77.2576       -0.0410643         138.377
0.668                   -8.45498         129.657         -44.7134         75.0979         -44.7135         75.0958        -0.041597         138.279
0.669                   -8.66588         128.958         -44.6481         72.9397         -44.6482         72.9377       -0.0421394         138.181
0.67                     -8.8821         128.297         -44.5833         70.7856         -44.5834         70.7837       -0.0426916         138.083
0.671                   -9.10347         127.677          -44.519          68.636         -44.5191         68.6342       -0.0432539         137.984
0.672                   -9.32976         127.101         -44.4551          66.491         -44.4552         66.4894       -0.0438265         137.884
0.673                   -9.56071         126.573         -44.3916         64.3512         -44.3917         64.3497       -0.0444097         137.784
0.674                   -9.79599         126.095         -44.3284         62.2166         -44.3286         62.2153       -0.0450037         137.684
0.675                   -10.0352         125.672         -44.2657         60.0878         -44.2658         60.0866       -0.0456088         137.583
0.676                    -10.278         125.306         -44.2033         57.9648         -44.2034         57.9639       -0.0462254         137.481
0.677                   -10.5238         125.002         -44.1411         55.8481         -44.1413         55.8473       -0.0468536         137.379
0.678                    -10.772         124.761         -44.0792         53.7379         -44.0794         53.7372       -0.0474937         137.277
0.679                    -11.022         124.587         -44.0176         51.6343         -44.0177         51.6339       -0.0481461         137.174
0.68                    -11.2732         124.484          -43.956         49.5377         -43.9562         49.5374       -0.0488111          137.07
0.681                   -11.5246         124.452         -43.8946         47.4483         -43.8947         47.4482        -0.049489         136.966
0.682                   -11.7754         124.494         -43.8333         45.3662         -43.8334         45.3662         -0.05018         136.861
0.683                   -12.0247         124.613         -43.7719         43.2916          -43.772         43.2918       -0.0508847         136.756
0.684                   -12.2715         124.807         -43.7105         41.2247         -43.7106         41.2249       -0.0516032          136.65
0.685                   -12.5147         125.079          -43.649         39.1655          -43.649         39.1659        -0.052336         136.543
0.686                   -12.7532         125.426         -43.5873         37.1142         -43.5873         37.1146       -0.0530835         136.436
0.687                   -12.9859         125.848         -43.5253         35.0707         -43.5253         35.0712        -0.053846         136.328
0.688                   -13.2116         126.341         -43.4631         33.0352         -43.4631         33.0358       -0.0546239          136.22
0.689                   -13.4291         126.903         -43.4004         31.0077         -43.4004         31.0083       -0.0554176          136.11
0.69                    -13.6374         127.529         -43.3374         28.9882         -43.3374         28.9888       -0.0562276         136.001
0.691                   -13.8354         128.213         -43.2739         26.9765         -43.2738         26.9772       -0.0570542          135.89
0.692                   -14.0223         128.947         -43.2098         24.9728         -43.2097         24.9734       -0.0578979         135.779
0.693                   -14.1971         129.726         -43.1451         22.9768          -43.145         22.9774       -0.0587593         135.667
0.694                   -14.3594         130.539         -43.0797         20.9884         -43.0796          20.989       -0.0596386         135.555
0.695                   -14.5085         131.378         -43.0136         19.0076         -43.0135         19.0082       -0.0605365         135.441
0.696                   -14.6442         132.233         -42.9466         17.0342         -42.9465         17.0347       -0.0614534         135.327
0.697                   -14.7665         133.095         -42.8788          15.068         -42.8788         15.0684       -0.0623899         135.212