! TOUCHSTONE file generated by CST MICROWAVE STUDIO
! Date and time: Mon Oct 26 12:06:55 2020
! Project name: Scenario_1_Circular_Tissue_out_of_Line_v2.cst
! Parameters = {dy1=-69.2; L_HA=400; MT=2.54; Rad_Dielectric=30; Rad_Lower=7.3; Rad_Upper=30; a_HA=580; a_WG=246; b_HA=500; b_WG=121; c_HA=0; c_WG=187; d_feed=85; dx1=173; h_feed=15; h_lower=18; h_upper=40}
! Header version: 2018
! Port assignment regex: !\s*Touchstone port\s*([0-9]+)\s*=\s*(CST MWS port|CST DS port)\s*([0-9]+|Zmin|Zmax)\s*\(\"(.*)\"\)(\s*mode\s*([0-9]+))?.*
! Touchstone port assignment:
! Touchstone port 1 = CST MWS port 1 ("")
! Touchstone port 2 = CST MWS port 2 ("")
# GHz S DB R 50
0.5                    -0.106375        -122.546         -56.8854         131.982         -56.8854         131.982      -0.00720745         151.134
0.501                  -0.112259        -122.993         -56.6801         131.055         -56.6801         131.055      -0.00726864         151.069
0.502                  -0.118277        -123.442         -56.4737         130.115         -56.4737         130.116      -0.00732885         151.004
0.503                  -0.124436        -123.894         -56.2663         129.162         -56.2663         129.162      -0.00738811         150.939
0.504                  -0.130747        -124.348         -56.0579         128.195         -56.0578         128.195      -0.00744646         150.873
0.505                  -0.137221        -124.806         -55.8485         127.213         -55.8484         127.213      -0.00750395         150.808
0.506                  -0.143868        -125.266         -55.6381         126.217         -55.6381         126.217      -0.00756063         150.742
0.507                    -0.1507        -125.729         -55.4268         125.206         -55.4268         125.206      -0.00761658         150.676
0.508                   -0.15773        -126.196         -55.2146          124.18         -55.2145          124.18      -0.00767185         150.611
0.509                  -0.164972        -126.665         -55.0015         123.138         -55.0014         123.138      -0.00772653         150.545
0.51                    -0.17244        -127.137         -54.7875          122.08         -54.7875         122.081      -0.00778071         150.479
0.511                   -0.18015        -127.612         -54.5727         121.006         -54.5727         121.007      -0.00783448         150.413
0.512                  -0.188117        -128.091         -54.3571         119.916         -54.3571         119.916      -0.00788796         150.347
0.513                  -0.196358        -128.572         -54.1408         118.808         -54.1407         118.808      -0.00794127          150.28
0.514                  -0.204893        -129.057         -53.9237         117.682         -53.9237         117.683      -0.00799453         150.214
0.515                   -0.21374        -129.546          -53.706         116.539          -53.706         116.539      -0.00804788         150.148
0.516                   -0.22292        -130.037         -53.4877         115.377         -53.4877         115.378      -0.00810148         150.081
0.517                  -0.232454        -130.532         -53.2689         114.197         -53.2688         114.197      -0.00815549         150.015
0.518                  -0.242365         -131.03         -53.0495         112.997         -53.0494         112.998      -0.00821008         149.948
0.519                  -0.252677        -131.531         -52.8297         111.778         -52.8296         111.778      -0.00826545         149.881
0.52                   -0.263415        -132.036         -52.6095         110.539         -52.6095         110.539      -0.00832178         149.814
0.521                  -0.274604        -132.544         -52.3891          109.28          -52.389          109.28      -0.00837929         149.747
0.522                  -0.286273        -133.055         -52.1684         107.999         -52.1683         107.999       -0.0084382          149.68
0.523                  -0.298448         -133.57         -51.9476         106.698         -51.9476         106.698      -0.00849872         149.613
0.524                  -0.311159        -134.088         -51.7268         105.375         -51.7267         105.375       -0.0085611         149.546
0.525                  -0.324437        -134.609          -51.506          104.03         -51.5059          104.03      -0.00862557         149.478
0.526                  -0.338312        -135.133         -51.2854         102.662         -51.2853         102.663      -0.00869238         149.411
0.527                  -0.352814         -135.66          -51.065         101.273          -51.065         101.273      -0.00876177         149.343
0.528                  -0.367977        -136.189         -50.8451         99.8596          -50.845         99.8597        -0.008834         149.275
0.529                  -0.383832        -136.722         -50.6256         98.4234         -50.6256         98.4235      -0.00890931         149.207
0.53                   -0.400411        -137.257         -50.4068         96.9637         -50.4067         96.9638      -0.00898793         149.139
0.531                  -0.417745        -137.795         -50.1887         95.4803         -50.1886         95.4804      -0.00907011         149.071
0.532                  -0.435866        -138.334         -49.9715         93.9729         -49.9715          93.973      -0.00915607         149.003
0.533                  -0.454802        -138.876         -49.7554         92.4415         -49.7554         92.4415      -0.00924602         148.935
0.534                  -0.474581        -139.419         -49.5405         90.8858         -49.5404         90.8859      -0.00934017         148.866
0.535                  -0.495231        -139.964         -49.3269          89.306         -49.3269          89.306      -0.00943868         148.798
0.536                  -0.516772        -140.509         -49.1148         87.7019         -49.1148         87.7019      -0.00954171         148.729
0.537                  -0.539226        -141.056         -48.9045         86.0736         -48.9044         86.0737      -0.00964941          148.66
0.538                  -0.562608        -141.602         -48.6959         84.4214         -48.6959         84.4214      -0.00976187         148.592
0.539                  -0.586929        -142.149         -48.4894         82.7453         -48.4894         82.7453      -0.00987919         148.523
0.54                   -0.612194        -142.695         -48.2852         81.0458         -48.2851         81.0458       -0.0100014         148.454
0.541                  -0.638403         -143.24         -48.0833          79.323         -48.0832          79.323       -0.0101286         148.384
0.542                  -0.665549        -143.784         -47.8839         77.5776         -47.8839         77.5776       -0.0102606         148.315
0.543                  -0.693616        -144.326         -47.6873           75.81         -47.6873           75.81       -0.0103976         148.246
0.544                  -0.722581        -144.865         -47.4936         74.0209         -47.4936         74.0209       -0.0105393         148.176
0.545                  -0.752414        -145.402         -47.3031          72.211          -47.303          72.211       -0.0106858         148.107
0.546                  -0.783071        -145.935         -47.1157          70.381         -47.1157          70.381       -0.0108369         148.037
0.547                  -0.814504        -146.465         -46.9319          68.532         -46.9319          68.532       -0.0109924         147.968
0.548                  -0.846652         -146.99         -46.7516         66.6648         -46.7516         66.6648       -0.0111522         147.898
0.549                  -0.879446        -147.511         -46.5751         64.7806          -46.575         64.7806        -0.011316         147.828
0.55                   -0.912807        -148.026         -46.4024         62.8806         -46.4024         62.8806       -0.0114838         147.758
0.551                  -0.946647        -148.536         -46.2338          60.966         -46.2338         60.9659       -0.0116551         147.688
0.552                  -0.980871         -149.04         -46.0693         59.0381         -46.0693          59.038       -0.0118298         147.618
0.553                   -1.01538        -149.539         -45.9091         57.0983         -45.9091         57.0982       -0.0120077         147.547
0.554                   -1.05006        -150.031         -45.7532          55.148         -45.7532          55.148       -0.0121885         147.477
0.555                    -1.0848        -150.518         -45.6017         53.1889         -45.6017         53.1889       -0.0123719         147.407
0.556                   -1.11949        -150.998         -45.4546         51.2224         -45.4546         51.2224       -0.0125576         147.336
0.557                   -1.15401        -151.473         -45.3121         49.2502         -45.3121         49.2502       -0.0127455         147.265
0.558                   -1.18825        -151.941         -45.1741         47.2738         -45.1741         47.2738       -0.0129353         147.195
0.559                   -1.22209        -152.405         -45.0407         45.2948         -45.0407         45.2948       -0.0131267         147.124
0.56                    -1.25543        -152.863         -44.9118         43.3149         -44.9118         43.3149       -0.0133195         147.053
0.561                   -1.28816        -153.317         -44.7873         41.3356         -44.7873         41.3356       -0.0135135         146.982
0.562                    -1.3202        -153.767         -44.6673         39.3586         -44.6673         39.3586       -0.0137085         146.911
0.563                   -1.35146        -154.213         -44.5517         37.3853         -44.5517         37.3853       -0.0139043         146.839
0.564                   -1.38187        -154.657         -44.4404         35.4173         -44.4404         35.4173       -0.0141007         146.768
0.565                   -1.41137        -155.098         -44.3333         33.4559         -44.3333          33.456       -0.0142976         146.696
0.566                    -1.4399        -155.538         -44.2303         31.5027         -44.2303         31.5027       -0.0144947         146.625
0.567                   -1.46744        -155.978         -44.1312         29.5587         -44.1312         29.5588       -0.0146921         146.553
0.568                   -1.49395        -156.418         -44.0359         27.6253          -44.036         27.6254       -0.0148895         146.481
0.569                   -1.51943         -156.86         -43.9444         25.7036         -43.9444         25.7037       -0.0150869         146.409
0.57                    -1.54388        -157.303         -43.8563         23.7947         -43.8563         23.7947       -0.0152842         146.337
0.571                   -1.56731        -157.748         -43.7716         21.8994         -43.7716         21.8994       -0.0154813         146.265
0.572                   -1.58973        -158.197         -43.6901         20.0186         -43.6901         20.0187       -0.0156781         146.193
0.573                   -1.61118         -158.65         -43.6115         18.1531         -43.6115         18.1532       -0.0158747          146.12
0.574                   -1.63171        -159.108         -43.5358         16.3036         -43.5358         16.3037        -0.016071         146.048
0.575                   -1.65135        -159.571         -43.4628         14.4706         -43.4628         14.4706       -0.0162669         145.975
0.576                   -1.67017         -160.04         -43.3921         12.6546         -43.3921         12.6546       -0.0164625         145.902
0.577                   -1.68822        -160.515         -43.3238          10.856         -43.3238          10.856       -0.0166578         145.829
0.578                   -1.70555        -160.998         -43.2576         9.07504         -43.2576         9.07509       -0.0168527         145.756
0.579                   -1.72225        -161.488         -43.1932         7.31203         -43.1932         7.31208       -0.0170473         145.683
0.58                    -1.73837        -161.985         -43.1306         5.56707         -43.1306         5.56712       -0.0172416          145.61
0.581                   -1.75399        -162.491         -43.0696         3.84025         -43.0696         3.84029       -0.0174357         145.536
0.582                   -1.76918        -163.005         -43.0099         2.13155         -43.0099         2.13159       -0.0176295         145.462
0.583                     -1.784        -163.528         -42.9515        0.440929         -42.9515        0.440967       -0.0178232         145.388
0.584                   -1.79853        -164.059         -42.8942        -1.23174         -42.8942        -1.23171       -0.0180168         145.314
0.585                   -1.81284          -164.6         -42.8378        -2.88664         -42.8378        -2.88661       -0.0182103          145.24
0.586                   -1.82699        -165.151         -42.7821        -4.52398         -42.7821        -4.52395       -0.0184038         145.166
0.587                   -1.84106         -165.71         -42.7271        -6.14403         -42.7271        -6.14401       -0.0185973         145.092
0.588                    -1.8551         -166.28         -42.6726        -7.74711         -42.6726        -7.74708        -0.018791         145.017
0.589                   -1.86919        -166.859         -42.6185        -9.33354         -42.6185        -9.33352       -0.0189849         144.942
0.59                    -1.88338        -167.448         -42.5646        -10.9037         -42.5646        -10.9037        -0.019179         144.867
0.591                   -1.89773        -168.047         -42.5109         -12.458         -42.5109         -12.458       -0.0193735         144.792
0.592                   -1.91231        -168.655         -42.4572        -13.9969         -42.4572        -13.9968       -0.0195684         144.717
0.593                   -1.92716        -169.274         -42.4035        -15.5207         -42.4035        -15.5207       -0.0197637         144.641
0.594                   -1.94235        -169.903         -42.3495          -17.03         -42.3495          -17.03       -0.0199597         144.565
0.595                   -1.95793        -170.542         -42.2954        -18.5253         -42.2954        -18.5253       -0.0201563          144.49
0.596                   -1.97395        -171.191         -42.2409         -20.007         -42.2409         -20.007       -0.0203536         144.414
0.597                   -1.99047         -171.85          -42.186        -21.4756          -42.186        -21.4756       -0.0205517         144.337
0.598                   -2.00752        -172.519         -42.1306        -22.9317         -42.1306        -22.9317       -0.0207508         144.261
0.599                   -2.02517        -173.198         -42.0746        -24.3757         -42.0746        -24.3757       -0.0209508         144.184
0.6                     -2.04345        -173.888         -42.0181        -25.8082         -42.0181        -25.8082       -0.0211518         144.108
0.601                   -2.06243        -174.588         -41.9609        -27.2297         -41.9609        -27.2297       -0.0213541         144.031
0.602                   -2.08214        -175.298          -41.903        -28.6406          -41.903        -28.6406       -0.0215575         143.953
0.603                   -2.10263        -176.018         -41.8443        -30.0416         -41.8443        -30.0416       -0.0217623         143.876
0.604                   -2.12395        -176.748         -41.7848        -31.4331         -41.7848        -31.4331       -0.0219685         143.798
0.605                   -2.14615        -177.489         -41.7245        -32.8156         -41.7245        -32.8156       -0.0221763         143.721
0.606                   -2.16927         -178.24         -41.6634        -34.1896         -41.6634        -34.1897       -0.0223856         143.643
0.607                   -2.19336        -179.001         -41.6013        -35.5558         -41.6013        -35.5558       -0.0225965         143.564
0.608                   -2.21848        -179.773         -41.5383        -36.9144         -41.5383        -36.9145       -0.0228093         143.486
0.609                   -2.24466         179.445         -41.4743        -38.2662         -41.4743        -38.2662       -0.0230239         143.407
0.61                    -2.27196         178.652         -41.4094        -39.6114         -41.4094        -39.6114       -0.0232405         143.329
0.611                   -2.30043         177.849         -41.3435        -40.9507         -41.3435        -40.9507       -0.0234591         143.249
0.612                   -2.33012         177.036         -41.2766        -42.2844         -41.2766        -42.2844       -0.0236799          143.17
0.613                   -2.36109         176.212         -41.2087        -43.6131         -41.2087        -43.6131       -0.0239029         143.091
0.614                   -2.39338         175.378         -41.1398        -44.9372         -41.1398        -44.9373       -0.0241282         143.011
0.615                   -2.42706         174.533         -41.0699        -46.2572         -41.0699        -46.2572        -0.024356         142.931
0.616                   -2.46219         173.677          -40.999        -47.5735          -40.999        -47.5735       -0.0245862         142.851
0.617                   -2.49881         172.811          -40.927        -48.8865          -40.927        -48.8866       -0.0248191          142.77
0.618                     -2.537         171.934          -40.854        -50.1968          -40.854        -50.1968       -0.0250548          142.69
0.619                   -2.57681         171.046         -40.7801        -51.5046         -40.7801        -51.5046       -0.0252932         142.609
0.62                    -2.61832         170.148         -40.7051        -52.8104         -40.7051        -52.8104       -0.0255346         142.527
0.621                   -2.66158         169.239         -40.6292        -54.1146         -40.6292        -54.1147        -0.025779         142.446
0.622                   -2.70668         168.319         -40.5522        -55.4177         -40.5522        -55.4177       -0.0260265         142.364
0.623                   -2.75368         167.389         -40.4744        -56.7199         -40.4744        -56.7199       -0.0262772         142.282
0.624                   -2.80265         166.447         -40.3956        -58.0217         -40.3956        -58.0217       -0.0265313           142.2
0.625                   -2.85369         165.495         -40.3158        -59.3234         -40.3158        -59.3234       -0.0267889         142.118
0.626                   -2.90686         164.532         -40.2352        -60.6254         -40.2352        -60.6255         -0.02705         142.035
0.627                   -2.96225         163.559         -40.1537        -61.9281         -40.1537        -61.9281       -0.0273147         141.952
0.628                   -3.01995         162.575         -40.0713        -63.2317         -40.0713        -63.2317       -0.0275833         141.869
0.629                   -3.08004          161.58         -39.9882        -64.5366         -39.9882        -64.5366       -0.0278558         141.785
0.63                    -3.14263         160.574         -39.9042        -65.8432         -39.9042        -65.8432       -0.0281322         141.702
0.631                   -3.20781         159.558         -39.8195        -67.1516         -39.8195        -67.1516       -0.0284129         141.617
0.632                   -3.27568         158.532          -39.734        -68.4623          -39.734        -68.4623       -0.0286977         141.533
0.633                   -3.34634         157.495         -39.6479        -69.7755         -39.6479        -69.7755        -0.028987         141.448
0.634                    -3.4199         156.448         -39.5611        -71.0914         -39.5611        -71.0914       -0.0292807         141.363
0.635                   -3.49647         155.391         -39.4737        -72.4103         -39.4737        -72.4103       -0.0295791         141.278
0.636                   -3.57617         154.324         -39.3857        -73.7325         -39.3857        -73.7325       -0.0298823         141.193
0.637                   -3.65912         153.248         -39.2972        -75.0582         -39.2972        -75.0582       -0.0301903         141.107
0.638                   -3.74545         152.161         -39.2082        -76.3876         -39.2082        -76.3876       -0.0305034         141.021
0.639                   -3.83527         151.066         -39.1187         -77.721         -39.1187         -77.721       -0.0308216         140.934
0.64                    -3.92873         149.962         -39.0288        -79.0584         -39.0288        -79.0584       -0.0311452         140.847
0.641                   -4.02596         148.849         -38.9386        -80.4001         -38.9386        -80.4001       -0.0314742          140.76
0.642                    -4.1271         147.727         -38.8481        -81.7462         -38.8481        -81.7462       -0.0318088         140.673
0.643                    -4.2323         146.598         -38.7573        -83.0968         -38.7573        -83.0968       -0.0321491         140.585
0.644                   -4.34171         145.461         -38.6663        -84.4522         -38.6663        -84.4521       -0.0324954         140.497
0.645                   -4.45549         144.316         -38.5751        -85.8123         -38.5751        -85.8123       -0.0328476         140.409
0.646                    -4.5738         143.166         -38.4838        -87.1772         -38.4838        -87.1772       -0.0332061          140.32
0.647                    -4.6968         142.009         -38.3925        -88.5472         -38.3925        -88.5471        -0.033571         140.231
0.648                   -4.82468         140.846         -38.3012         -89.922         -38.3012         -89.922       -0.0339423         140.141
0.649                    -4.9576         139.679           -38.21        -91.3019           -38.21        -91.3019       -0.0343204         140.051
0.65                    -5.09575         138.508         -38.1188        -92.6868         -38.1188        -92.6868       -0.0347053         139.961
0.651                   -5.23932         137.334         -38.0279        -94.0766         -38.0279        -94.0766       -0.0350973         139.871
0.652                    -5.3885         136.157         -37.9371        -95.4714         -37.9371        -95.4714       -0.0354965          139.78
0.653                    -5.5435         134.978         -37.8467         -96.871         -37.8467         -96.871        -0.035903         139.688
0.654                   -5.70453         133.799         -37.7565        -98.2755         -37.7565        -98.2755       -0.0363171         139.597
0.655                    -5.8718         132.621         -37.6668        -99.6846         -37.6668        -99.6846        -0.036739         139.505
0.656                   -6.04553         131.444         -37.5775        -101.098         -37.5775        -101.098       -0.0371688         139.412
0.657                   -6.22595          130.27         -37.4887        -102.516         -37.4887        -102.516       -0.0376068         139.319
0.658                    -6.4133         129.101         -37.4004        -103.939         -37.4004        -103.939       -0.0380531         139.226
0.659                   -6.60783         127.937         -37.3128        -105.365         -37.3127        -105.365       -0.0385079         139.132
0.66                    -6.80978         126.781         -37.2257        -106.795         -37.2257        -106.795       -0.0389715         139.038
0.661                   -7.01943         125.634         -37.1394        -108.229         -37.1394        -108.229       -0.0394439         138.944
0.662                   -7.23704         124.499         -37.0538        -109.666         -37.0538        -109.666       -0.0399256         138.849
0.663                    -7.4629         123.377         -36.9689        -111.106         -36.9689        -111.106       -0.0404165         138.754
0.664                    -7.6973          122.27         -36.8849        -112.549         -36.8849        -112.549       -0.0409171         138.658
0.665                   -7.94054         121.182         -36.8017        -113.995         -36.8017        -113.995       -0.0414274         138.561
0.666                   -8.19293         120.115         -36.7194        -115.442         -36.7194        -115.442       -0.0419478         138.465
0.667                   -8.45481         119.071          -36.638        -116.891          -36.638        -116.891       -0.0424783         138.368
0.668                    -8.7265         118.055         -36.5576        -118.342         -36.5576        -118.342       -0.0430194          138.27
0.669                   -9.00836          117.07         -36.4781        -119.793         -36.4781        -119.793       -0.0435711         138.172
0.67                    -9.30075         116.119         -36.3996        -121.245         -36.3996        -121.245       -0.0441338         138.073
0.671                   -9.60403         115.208         -36.3221        -122.698         -36.3221        -122.698       -0.0447076         137.974
0.672                   -9.91857         114.341         -36.2456         -124.15         -36.2456         -124.15       -0.0452928         137.875
0.673                   -10.2448         113.524         -36.1702        -125.601         -36.1702        -125.601       -0.0458897         137.775
0.674                    -10.583         112.763         -36.0957        -127.052         -36.0957        -127.052       -0.0464984         137.674
0.675                   -10.9337         112.065         -36.0223          -128.5         -36.0223          -128.5       -0.0471193         137.573
0.676                   -11.2971         111.437         -35.9499        -129.947         -35.9499        -129.947       -0.0477526         137.472
0.677                   -11.6737          110.89         -35.8785        -131.392         -35.8785        -131.392       -0.0483986          137.37
0.678                   -12.0637         110.431         -35.8081        -132.834         -35.8081        -132.834       -0.0490575         137.267
0.679                   -12.4674         110.074         -35.7387        -134.272         -35.7387        -134.272       -0.0497296         137.164
0.68                    -12.8849          109.83         -35.6703        -135.707         -35.6703        -135.707       -0.0504151          137.06
0.681                   -13.3163         109.714         -35.6028        -137.138         -35.6028        -137.138       -0.0511144         136.956
0.682                   -13.7615         109.743         -35.5362        -138.564         -35.5362        -138.564       -0.0518276         136.851
0.683                   -14.2199         109.935         -35.4704        -139.986         -35.4704        -139.986       -0.0525552         136.745
0.684                   -14.6908         110.311         -35.4055        -141.402         -35.4055        -141.402       -0.0532974         136.639
0.685                   -15.1731         110.894         -35.3414        -142.813         -35.3414        -142.813       -0.0540545         136.533
0.686                   -15.6648         111.711          -35.278        -144.218          -35.278        -144.218       -0.0548268         136.425
0.687                   -16.1633         112.789         -35.2153        -145.617         -35.2153        -145.617       -0.0556146         136.318
0.688                   -16.6647         114.158         -35.1533        -147.009         -35.1533        -147.009       -0.0564183         136.209
0.689                   -17.1641         115.846         -35.0919        -148.394         -35.0919        -148.394       -0.0572381           136.1
0.69                    -17.6547         117.881          -35.031        -149.772          -35.031        -149.772       -0.0580745          135.99
0.691                   -18.1281         120.285         -34.9706        -151.143         -34.9706        -151.143       -0.0589277          135.88
0.692                   -18.5741         123.068         -34.9106        -152.506         -34.9106        -152.506       -0.0597982         135.768
0.693                   -18.9809         126.228          -34.851        -153.861          -34.851        -153.861       -0.0606863         135.657
0.694                   -19.3356         129.738         -34.7917        -155.209         -34.7917        -155.209       -0.0615924         135.544
0.695                   -19.6257         133.547         -34.7326        -156.548         -34.7326        -156.548        -0.062517         135.431
0.696                   -19.8403         137.578         -34.6737        -157.879         -34.6737        -157.879       -0.0634604         135.317
0.697                   -19.9719          141.73         -34.6149        -159.201         -34.6149        -159.201        -0.064423         135.202