! TOUCHSTONE file generated by CST MICROWAVE STUDIO
! Date and time: Wed Oct 28 19:16:47 2020
! Project name: Scenario_1_Circular_Tissue_out_of_Line.cst
! Parameters = {dy1=-51.203; L_HA=400; MT=2.54; Rad_Dielectric=30; Rad_Lower=7.3; Rad_Upper=30; a_HA=580; a_WG=246; b_HA=500; b_WG=121; c_HA=0; c_WG=187; d_feed=85; dx1=693; h_feed=15; h_lower=18; h_upper=40}
! Header version: 2018
! Port assignment regex: !\s*Touchstone port\s*([0-9]+)\s*=\s*(CST MWS port|CST DS port)\s*([0-9]+|Zmin|Zmax)\s*\(\"(.*)\"\)(\s*mode\s*([0-9]+))?.*
! Touchstone port assignment:
! Touchstone port 1 = CST MWS port 1 ("")
! Touchstone port 2 = CST MWS port 2 ("")
# GHz S DB R 50
0.5                    -0.155185        -122.265         -61.9886        -166.658         -61.9886        -166.658      -0.00771169         151.126
0.501                  -0.155929        -122.717         -62.0259        -169.074         -62.0259        -169.074      -0.00776396          151.06
0.502                   -0.15701        -123.172         -62.0557        -171.525         -62.0558        -171.526       -0.0078174         150.995
0.503                  -0.158434        -123.629         -62.0777        -174.009         -62.0779        -174.012      -0.00787201         150.929
0.504                  -0.160204        -124.089         -62.0915        -176.524         -62.0917        -176.527      -0.00792781         150.864
0.505                  -0.162327        -124.551         -62.0968        -179.066         -62.0971         -179.07      -0.00798479         150.798
0.506                  -0.164806        -125.015         -62.0933         178.367         -62.0936         178.363      -0.00804295         150.732
0.507                  -0.167648        -125.481         -62.0809         175.781         -62.0812         175.776      -0.00810229         150.667
0.508                  -0.170856         -125.95         -62.0592         173.177         -62.0595         173.172      -0.00816283         150.601
0.509                  -0.174435         -126.42         -62.0283         170.561         -62.0286         170.554      -0.00822455         150.535
0.51                    -0.17839        -126.893          -61.988         167.935         -61.9883         167.928      -0.00828747         150.469
0.511                  -0.182725        -127.369         -61.9384         165.304         -61.9387         165.296      -0.00835158         150.403
0.512                  -0.187445        -127.846         -61.8794         162.672         -61.8797         162.663      -0.00841689         150.336
0.513                  -0.192555        -128.326         -61.8113         160.042         -61.8116         160.033       -0.0084834          150.27
0.514                  -0.198058        -128.807         -61.7342         157.418         -61.7345         157.409      -0.00855111         150.204
0.515                  -0.203959        -129.291         -61.6483         154.804         -61.6486         154.794      -0.00862003         150.137
0.516                  -0.210262        -129.777         -61.5539         152.203         -61.5541         152.192      -0.00869016         150.071
0.517                  -0.216971        -130.265         -61.4513         149.618         -61.4515         149.607      -0.00876151         150.004
0.518                   -0.22409        -130.755         -61.3409         147.051          -61.341          147.04      -0.00883406         149.937
0.519                  -0.231623        -131.248          -61.223         144.506         -61.2231         144.494      -0.00890784         149.871
0.52                   -0.239573        -131.742         -61.0981         141.985         -61.0981         141.973      -0.00898284         149.804
0.521                  -0.247944        -132.238         -60.9665         139.489         -60.9665         139.476      -0.00905906         149.737
0.522                  -0.256739        -132.736         -60.8287          137.02         -60.8286         137.007      -0.00913652          149.67
0.523                  -0.265962        -133.236         -60.6852          134.58         -60.6851         134.567       -0.0092152         149.603
0.524                  -0.275616        -133.738         -60.5364         132.169         -60.5362         132.155      -0.00929513         149.535
0.525                  -0.285703        -134.241         -60.3827         129.788         -60.3825         129.774      -0.00937629         149.468
0.526                  -0.296227        -134.747         -60.2246         127.438         -60.2244         127.424       -0.0094587         149.401
0.527                  -0.307191        -135.254         -60.0625         125.119         -60.0622         125.105      -0.00954236         149.333
0.528                  -0.318596        -135.763         -59.8968         122.831         -59.8965         122.817      -0.00962727         149.266
0.529                  -0.330445        -136.274         -59.7279         120.574         -59.7276          120.56      -0.00971344         149.198
0.53                    -0.34274        -136.787         -59.5562         118.347         -59.5558         118.334      -0.00980087          149.13
0.531                  -0.355483        -137.301         -59.3821          116.15         -59.3816         116.137      -0.00988956         149.062
0.532                  -0.368676        -137.817         -59.2058         113.983         -59.2053          113.97      -0.00997953         148.994
0.533                  -0.382321        -138.335         -59.0277         111.845         -59.0272         111.832       -0.0100708         148.926
0.534                  -0.396418        -138.854         -58.8481         109.735         -58.8475         109.721       -0.0101633         148.858
0.535                   -0.41097        -139.375         -58.6672         107.651         -58.6667         107.638       -0.0102571          148.79
0.536                  -0.425976        -139.897         -58.4854         105.594         -58.4848         105.581       -0.0103522         148.722
0.537                  -0.441438        -140.421         -58.3029         103.561         -58.3023         103.549       -0.0104486         148.653
0.538                  -0.457356        -140.946         -58.1198         101.553         -58.1192          101.54       -0.0105463         148.585
0.539                   -0.47373        -141.473         -57.9365         99.5674         -57.9358          99.555       -0.0106454         148.516
0.54                   -0.490561        -142.001          -57.753         97.6036         -57.7523         97.5915       -0.0107457         148.447
0.541                  -0.507849         -142.53         -57.5696         95.6606         -57.5689         95.6486       -0.0108473         148.379
0.542                  -0.525592        -143.061         -57.3863         93.7372         -57.3857         93.7254       -0.0109503          148.31
0.543                   -0.54379        -143.594         -57.2034         91.8322         -57.2028         91.8206       -0.0110546         148.241
0.544                  -0.562443        -144.127          -57.021         89.9446         -57.0203         89.9333       -0.0111603         148.171
0.545                  -0.581549        -144.662         -56.8392         88.0734         -56.8385         88.0623       -0.0112673         148.102
0.546                  -0.601106        -145.198          -56.658         86.2175         -56.6574         86.2066       -0.0113757         148.033
0.547                  -0.621114        -145.735         -56.4777         84.3758          -56.477         84.3651       -0.0114854         147.963
0.548                   -0.64157        -146.274         -56.2983         82.5473         -56.2976         82.5369       -0.0115965         147.894
0.549                  -0.662472        -146.813         -56.1198         80.7311         -56.1191         80.7209       -0.0117089         147.824
0.55                   -0.683817        -147.354         -55.9423         78.9262         -55.9416         78.9162       -0.0118228         147.754
0.551                  -0.705604        -147.896         -55.7659         77.1317         -55.7653         77.1219        -0.011938         147.684
0.552                  -0.727828        -148.439         -55.5907         75.3467           -55.59         75.3371       -0.0120547         147.614
0.553                  -0.750487        -148.983         -55.4167         73.5703          -55.416         73.5609       -0.0121728         147.544
0.554                  -0.773577        -149.529         -55.2439         71.8016         -55.2433         71.7925       -0.0122922         147.474
0.555                  -0.797095        -150.075         -55.0724         70.0399         -55.0718          70.031       -0.0124131         147.404
0.556                  -0.821036        -150.622         -54.9023         68.2844         -54.9017         68.2758       -0.0125355         147.333
0.557                  -0.845396        -151.171         -54.7335         66.5343         -54.7329         66.5259       -0.0126593         147.263
0.558                  -0.870171         -151.72         -54.5661          64.789         -54.5655         64.7808       -0.0127845         147.192
0.559                  -0.895356        -152.271         -54.4001         63.0476         -54.3995         63.0396       -0.0129113         147.121
0.56                   -0.920947        -152.822         -54.2355         61.3096         -54.2349         61.3019       -0.0130395          147.05
0.561                  -0.946937        -153.375         -54.0724         59.5744         -54.0719         59.5668       -0.0131691         146.979
0.562                  -0.973321        -153.928         -53.9108         57.8412         -53.9103         57.8339       -0.0133003         146.908
0.563                   -1.00009        -154.483         -53.7507         56.1096         -53.7502         56.1025        -0.013433         146.836
0.564                   -1.02725        -155.038         -53.5921          54.379         -53.5916         54.3721       -0.0135672         146.765
0.565                   -1.05478        -155.595          -53.435         52.6487         -53.4345         52.6421        -0.013703         146.693
0.566                   -1.08268        -156.153         -53.2794         50.9185         -53.2789          50.912       -0.0138403         146.622
0.567                   -1.11095        -156.712         -53.1254         49.1877         -53.1249         49.1814       -0.0139792          146.55
0.568                   -1.13957        -157.272         -52.9729         47.4558         -52.9725         47.4498       -0.0141196         146.478
0.569                   -1.16855        -157.833          -52.822         45.7226         -52.8216         45.7167       -0.0142616         146.406
0.57                    -1.19786        -158.395         -52.6727         43.9874         -52.6723         43.9818       -0.0144053         146.333
0.571                   -1.22751        -158.959         -52.5249         42.2501         -52.5245         42.2446       -0.0145505         146.261
0.572                    -1.2575        -159.523         -52.3787         40.5101         -52.3783         40.5048       -0.0146974         146.189
0.573                    -1.2878        -160.089         -52.2341         38.7671         -52.2337         38.7621       -0.0148459         146.116
0.574                   -1.31842        -160.657         -52.0911         37.0209         -52.0907          37.016       -0.0149961         146.043
0.575                   -1.34934        -161.225         -51.9497         35.2711         -51.9493         35.2664       -0.0151479          145.97
0.576                   -1.38057        -161.795         -51.8098         33.5174         -51.8095         33.5129       -0.0153015         145.897
0.577                   -1.41208        -162.367         -51.6716         31.7595         -51.6713         31.7552       -0.0154567         145.824
0.578                   -1.44388        -162.941         -51.5349         29.9973         -51.5346         29.9931       -0.0156137          145.75
0.579                   -1.47596        -163.516         -51.3998         28.2304         -51.3996         28.2264       -0.0157724         145.677
0.58                    -1.50832        -164.092         -51.2664         26.4587         -51.2661         26.4549       -0.0159329         145.603
0.581                   -1.54093        -164.671         -51.1345         24.6819         -51.1342         24.6783       -0.0160952         145.529
0.582                    -1.5738        -165.252         -51.0042            22.9         -51.0039         22.8965       -0.0162593         145.455
0.583                   -1.60693        -165.834         -50.8755         21.1127         -50.8753         21.1094       -0.0164252         145.381
0.584                    -1.6403        -166.419         -50.7484         19.3199         -50.7481         19.3167        -0.016593         145.307
0.585                   -1.67392        -167.007         -50.6228         17.5214         -50.6226         17.5184       -0.0167626         145.232
0.586                   -1.70777        -167.596         -50.4989         15.7172         -50.4987         15.7144       -0.0169341         145.158
0.587                   -1.74185        -168.189         -50.3765         13.9072         -50.3763         13.9045       -0.0171075         145.083
0.588                   -1.77616        -168.784         -50.2556         12.0913         -50.2555         12.0887       -0.0172828         145.008
0.589                    -1.8107        -169.382         -50.1364         10.2694         -50.1362         10.2669       -0.0174601         144.933
0.59                    -1.84547        -169.983         -50.0187         8.44146         -50.0185         8.43917       -0.0176394         144.857
0.591                   -1.88046        -170.588         -49.9025          6.6075         -49.9023         6.60534       -0.0178207         144.782
0.592                   -1.91568        -171.196         -49.7878         4.76747         -49.7877         4.76544       -0.0180041         144.706
0.593                   -1.95113        -171.808         -49.6747         2.92137         -49.6746         2.91947       -0.0181895          144.63
0.594                   -1.98682        -172.423         -49.5631         1.06922          -49.563         1.06743       -0.0183769         144.554
0.595                   -2.02274        -173.043          -49.453       -0.788974         -49.4529       -0.790647       -0.0185666         144.478
0.596                   -2.05891        -173.668         -49.3444        -2.65317         -49.3443        -2.65473       -0.0187583         144.402
0.597                   -2.09534        -174.297         -49.2373        -4.52332         -49.2372        -4.52478       -0.0189523         144.325
0.598                   -2.13204        -174.931         -49.1316        -6.39937         -49.1315        -6.40073       -0.0191484         144.249
0.599                   -2.16902         -175.57         -49.0273        -8.28125         -49.0272         -8.2825       -0.0193468         144.172
0.6                     -2.20631        -176.215         -48.9245        -10.1689         -48.9244          -10.17       -0.0195475         144.095
0.601                   -2.24392        -176.866         -48.8231        -12.0621          -48.823        -12.0632       -0.0197505         144.017
0.602                   -2.28188        -177.522          -48.723         -13.961         -48.7229         -13.962       -0.0199558          143.94
0.603                   -2.32021        -178.186         -48.6243        -15.8652         -48.6243        -15.8661       -0.0201635         143.862
0.604                   -2.35895        -178.856          -48.527        -17.7748         -48.5269        -17.7757       -0.0203737         143.784
0.605                   -2.39814        -179.533          -48.431        -19.6896         -48.4309        -19.6904       -0.0205863         143.706
0.606                   -2.43782         179.782         -48.3362        -21.6094         -48.3362        -21.6101       -0.0208015         143.628
0.607                   -2.47803          179.09         -48.2428        -23.5342         -48.2427        -23.5348       -0.0210191         143.549
0.608                   -2.51883         178.389         -48.1505        -25.4637         -48.1505        -25.4642       -0.0212394         143.471
0.609                   -2.56027         177.679         -48.0595        -27.3978         -48.0594        -27.3983       -0.0214623         143.392
0.61                    -2.60242         176.961         -47.9697        -29.3363         -47.9696        -29.3368       -0.0216879         143.313
0.611                   -2.64535         176.233          -47.881        -31.2791         -47.8809        -31.2795       -0.0219162         143.233
0.612                   -2.68914         175.496         -47.7934         -33.226         -47.7933        -33.2264       -0.0221474         143.154
0.613                   -2.73388         174.749         -47.7069        -35.1768         -47.7068        -35.1772       -0.0223813         143.074
0.614                   -2.77966         173.992         -47.6214        -37.1314         -47.6214        -37.1317       -0.0226181         142.994
0.615                   -2.82658         173.223          -47.537        -39.0894         -47.5369        -39.0897       -0.0228579         142.914
0.616                   -2.87475         172.445         -47.4535        -41.0508         -47.4535        -41.0511       -0.0231007         142.833
0.617                   -2.92429         171.655          -47.371        -43.0154         -47.3709        -43.0156       -0.0233465         142.753
0.618                   -2.97532         170.854         -47.2894         -44.983         -47.2893        -44.9831       -0.0235955         142.672
0.619                     -3.028         170.041         -47.2087        -46.9532         -47.2086        -46.9534       -0.0238476          142.59
0.62                    -3.08245         169.217         -47.1287        -48.9261         -47.1287        -48.9263       -0.0241029         142.509
0.621                   -3.13883         168.382         -47.0496        -50.9013         -47.0496        -50.9015       -0.0243616         142.427
0.622                    -3.1973         167.535         -46.9712        -52.8787         -46.9712        -52.8788       -0.0246237         142.345
0.623                   -3.25803         166.676         -46.8936         -54.858         -46.8935        -54.8581       -0.0248891         142.263
0.624                    -3.3212         165.807         -46.8166        -56.8391         -46.8165        -56.8392       -0.0251582         142.181
0.625                   -3.38698         164.927         -46.7402        -58.8217         -46.7401        -58.8219       -0.0254308         142.098
0.626                   -3.45555         164.037         -46.6644        -60.8057         -46.6643        -60.8058       -0.0257071         142.015
0.627                    -3.5271         163.136         -46.5892        -62.7909         -46.5891         -62.791       -0.0259871         141.932
0.628                   -3.60182         162.227         -46.5144         -64.777         -46.5144        -64.7771        -0.026271         141.849
0.629                   -3.67989          161.31         -46.4401        -66.7639         -46.4401         -66.764       -0.0265588         141.765
0.63                    -3.76149         160.385         -46.3663        -68.7513         -46.3662        -68.7514       -0.0268506         141.681
0.631                   -3.84679         159.454         -46.2928        -70.7391         -46.2927        -70.7393       -0.0271465         141.597
0.632                   -3.93597         158.518         -46.2197        -72.7272         -46.2196        -72.7273       -0.0274466         141.512
0.633                   -4.02917         157.578         -46.1468        -74.7152         -46.1467        -74.7153        -0.027751         141.427
0.634                   -4.12654         156.636         -46.0742         -76.703         -46.0742        -76.7031       -0.0280598         141.342
0.635                    -4.2282         155.694         -46.0018        -78.6905         -46.0018        -78.6906       -0.0283731         141.256
0.636                   -4.33425         154.753         -45.9296        -80.6774         -45.9296        -80.6776        -0.028691         141.171
0.637                   -4.44477         153.815         -45.8575        -82.6637         -45.8575        -82.6638       -0.0290136         141.085
0.638                   -4.55981         152.882         -45.7856        -84.6491         -45.7855        -84.6492       -0.0293411         140.998
0.639                   -4.67939         151.956         -45.7137        -86.6334         -45.7136        -86.6336       -0.0296735         140.912
0.64                    -4.80352         151.039         -45.6418        -88.6166         -45.6417        -88.6167        -0.030011         140.825
0.641                   -4.93217         150.134         -45.5699        -90.5984         -45.5698        -90.5985       -0.0303536         140.737
0.642                   -5.06525         149.241         -45.4979        -92.5787         -45.4979        -92.5789       -0.0307016          140.65
0.643                   -5.20269         148.364         -45.4259        -94.5574         -45.4258        -94.5576       -0.0310551         140.562
0.644                   -5.34434         147.504         -45.3537        -96.5343         -45.3537        -96.5345       -0.0314141         140.473
0.645                   -5.49006         146.663         -45.2814        -98.5093         -45.2814        -98.5095       -0.0317789         140.385
0.646                   -5.63965         145.844         -45.2089        -100.482         -45.2089        -100.483       -0.0321495         140.296
0.647                   -5.79291         145.046         -45.1362        -102.453         -45.1362        -102.453       -0.0325262         140.207
0.648                   -5.94959         144.273         -45.0633        -104.422         -45.0633        -104.422        -0.032909         140.117
0.649                   -6.10944         143.526         -44.9901        -106.388         -44.9901        -106.388       -0.0332982         140.027
0.65                    -6.27219         142.805         -44.9166        -108.352         -44.9166        -108.352       -0.0336938         139.936
0.651                   -6.43755         142.112         -44.8428        -110.313         -44.8428        -110.313       -0.0340962         139.846
0.652                   -6.60523         141.447         -44.7686        -112.271         -44.7686        -112.271       -0.0345053         139.755
0.653                   -6.77493         140.811          -44.694        -114.227         -44.6941        -114.227       -0.0349214         139.663
0.654                   -6.94633         140.205         -44.6191         -116.18         -44.6192         -116.18       -0.0353448         139.571
0.655                   -7.11915         139.628         -44.5438         -118.13         -44.5438         -118.13       -0.0357754         139.479
0.656                   -7.29309         139.081          -44.468        -120.077         -44.4681        -120.077       -0.0362137         139.386
0.657                   -7.46785         138.563         -44.3918        -122.021         -44.3919        -122.021       -0.0366596         139.293
0.658                   -7.64318         138.074         -44.3151        -123.962         -44.3152        -123.962       -0.0371135           139.2
0.659                   -7.81879         137.614          -44.238          -125.9         -44.2381          -125.9       -0.0375755         139.106
0.66                    -7.99445         137.181         -44.1603        -127.834         -44.1604        -127.834       -0.0380458         139.011
0.661                   -8.16993         136.776         -44.0821        -129.765         -44.0823        -129.765       -0.0385247         138.917
0.662                   -8.34502         136.398         -44.0035        -131.693         -44.0036        -131.693       -0.0390123         138.822
0.663                   -8.51953         136.044         -43.9242        -133.618         -43.9244        -133.618       -0.0395089         138.726
0.664                   -8.69328         135.716         -43.8445        -135.539         -43.8446        -135.539       -0.0400147          138.63
0.665                   -8.86612          135.41         -43.7642        -137.458         -43.7643        -137.457       -0.0405298         138.533
0.666                   -9.03792         135.127         -43.6833        -139.372         -43.6835        -139.372       -0.0410546         138.437
0.667                   -9.20857         134.865         -43.6019        -141.284         -43.6021        -141.283       -0.0415893         138.339
0.668                   -9.37798         134.623         -43.5199        -143.192         -43.5201        -143.191       -0.0421341         138.241
0.669                   -9.54605           134.4         -43.4373        -145.096         -43.4375        -145.096       -0.0426892         138.143
0.67                    -9.71275         134.196         -43.3542        -146.997         -43.3544        -146.997       -0.0432548         138.044
0.671                   -9.87801         134.008         -43.2704        -148.895         -43.2707        -148.895       -0.0438313         137.945
0.672                   -10.0418         133.835         -43.1861         -150.79         -43.1864         -150.79       -0.0444189         137.845
0.673                   -10.2042         133.678         -43.1012        -152.681         -43.1015        -152.681       -0.0450177         137.745
0.674                    -10.365         133.535         -43.0158        -154.569          -43.016        -154.569       -0.0456282         137.644
0.675                   -10.5244         133.405         -42.9297        -156.454         -42.9299        -156.454       -0.0462504         137.542
0.676                   -10.6823         133.286          -42.843        -158.336         -42.8433        -158.335       -0.0468848         137.441
0.677                   -10.8388          133.18         -42.7558        -160.215         -42.7561        -160.214       -0.0475315         137.338
0.678                   -10.9939         133.084          -42.668         -162.09         -42.6683        -162.089       -0.0481908         137.235
0.679                   -11.1477         132.998         -42.5796        -163.962         -42.5799        -163.962        -0.048863         137.132
0.68                    -11.3001         132.922         -42.4906        -165.832         -42.4909        -165.831       -0.0495484         137.028
0.681                   -11.4513         132.855         -42.4011        -167.698         -42.4014        -167.697       -0.0502472         136.923
0.682                   -11.6012         132.796          -42.311        -169.562         -42.3113        -169.561       -0.0509598         136.818
0.683                     -11.75         132.745         -42.2203        -171.423         -42.2207        -171.422       -0.0516863         136.712
0.684                   -11.8978         132.702         -42.1291        -173.281         -42.1295         -173.28       -0.0524271         136.606
0.685                   -12.0445         132.666         -42.0374        -175.136         -42.0377        -175.135       -0.0531825         136.499
0.686                   -12.1902         132.638         -41.9451        -176.989         -41.9454        -176.988       -0.0539528         136.391
0.687                    -12.335         132.616         -41.8522        -178.839         -41.8526        -178.838       -0.0547383         136.283
0.688                   -12.4789         132.602         -41.7588         179.313         -41.7592         179.314       -0.0555392         136.174
0.689                   -12.6221         132.594         -41.6649         177.467         -41.6653         177.469        -0.056356         136.064
0.69                    -12.7645         132.593         -41.5705         175.624         -41.5709         175.626       -0.0571888         135.954
0.691                   -12.9062         132.599         -41.4756         173.783          -41.476         173.785       -0.0580381         135.843
0.692                   -13.0473         132.612         -41.3802         171.944         -41.3806         171.946       -0.0589042         135.731
0.693                   -13.1878         132.632         -41.2843         170.107         -41.2847         170.109       -0.0597874         135.619
0.694                   -13.3279         132.659         -41.1879         168.272         -41.1883         168.273        -0.060688         135.506
0.695                   -13.4674         132.693          -41.091         166.438         -41.0915          166.44       -0.0616065         135.393
0.696                   -13.6065         132.735         -40.9937         164.607         -40.9941         164.608       -0.0625431         135.278
0.697                   -13.7452         132.785         -40.8959         162.777         -40.8963         162.778       -0.0634984         135.163