! TOUCHSTONE file generated by CST MICROWAVE STUDIO
! Date and time: Mon Oct 26 12:27:03 2020
! Project name: Scenario_1_Circular_Tissue_out_of_Line.cst
! Parameters = {dy1=-51.203; L_HA=400; MT=2.54; Rad_Dielectric=30; Rad_Lower=7.3; Rad_Upper=30; a_HA=580; a_WG=246; b_HA=500; b_WG=121; c_HA=0; c_WG=187; d_feed=85; dx1=866; h_feed=15; h_lower=18; h_upper=40}
! Header version: 2018
! Port assignment regex: !\s*Touchstone port\s*([0-9]+)\s*=\s*(CST MWS port|CST DS port)\s*([0-9]+|Zmin|Zmax)\s*\(\"(.*)\"\)(\s*mode\s*([0-9]+))?.*
! Touchstone port assignment:
! Touchstone port 1 = CST MWS port 1 ("")
! Touchstone port 2 = CST MWS port 2 ("")
# GHz S DB R 50
0.5                    -0.142675        -122.412          -62.643         99.4055          -62.643         99.4055      -0.00745919         151.122
0.501                  -0.150269        -122.857         -62.4398         97.3122         -62.4401         97.3118       -0.0075317         151.056
0.502                  -0.158008        -123.304         -62.2382         95.1996         -62.2388         95.1989      -0.00760502         150.991
0.503                  -0.165891        -123.751         -62.0383         93.0679         -62.0392         93.0672      -0.00767914         150.926
0.504                  -0.173917          -124.2         -61.8403         90.9175         -61.8415         90.9167      -0.00775408          150.86
0.505                  -0.182085         -124.65         -61.6443         88.7486         -61.6456         88.7479      -0.00782984         150.794
0.506                  -0.190394        -125.102         -61.4503         86.5617         -61.4518         86.5611      -0.00790643         150.729
0.507                  -0.198845        -125.554         -61.2585          84.357         -61.2601         84.3566      -0.00798387         150.663
0.508                  -0.207437        -126.008         -61.0689         82.1352         -61.0705          82.135      -0.00806215         150.597
0.509                  -0.216168        -126.464         -60.8816         79.8967         -60.8833         79.8968      -0.00814129         150.531
0.51                    -0.22504         -126.92         -60.6967          77.642         -60.6984         77.6424      -0.00822129         150.465
0.511                  -0.234051        -127.378         -60.5142         75.3719         -60.5159         75.3726      -0.00830216         150.399
0.512                  -0.243201        -127.838         -60.3343          73.087         -60.3359          73.088      -0.00838391         150.333
0.513                  -0.252489        -128.299          -60.157          70.788         -60.1585         70.7892      -0.00846655         150.267
0.514                  -0.261917        -128.762         -59.9824         68.4757         -59.9838         68.4771      -0.00855009           150.2
0.515                  -0.271484        -129.226         -59.8105         66.1509         -59.8118         66.1525      -0.00863453         150.134
0.516                   -0.28119        -129.691         -59.6414         63.8144         -59.6425         63.8161      -0.00871989         150.067
0.517                  -0.291035        -130.159          -59.475         61.4671          -59.476         61.4689      -0.00880618         150.001
0.518                  -0.301019        -130.628         -59.3115           59.11         -59.3124         59.1117      -0.00889339         149.934
0.519                  -0.311144        -131.098         -59.1509         56.7438         -59.1515         56.7455      -0.00898155         149.868
0.52                   -0.321409        -131.571         -58.9932         54.3697         -58.9936         54.3713      -0.00907066         149.801
0.521                  -0.331815        -132.045         -58.8383         51.9885         -58.8385         51.9899      -0.00916072         149.734
0.522                  -0.342364        -132.521         -58.6863         49.6012         -58.6863         49.6023      -0.00925176         149.667
0.523                  -0.353056        -132.998         -58.5372         47.2089          -58.537         47.2096      -0.00934376           149.6
0.524                  -0.363893        -133.478         -58.3908         44.8124         -58.3904         44.8126      -0.00943676         149.533
0.525                  -0.374876        -133.959         -58.2473         42.4127         -58.2467         42.4124      -0.00953074         149.465
0.526                  -0.386006        -134.443         -58.1065         40.0108         -58.1058         40.0099      -0.00962572         149.398
0.527                  -0.397286        -134.928         -57.9685         37.6075         -57.9675          37.606       -0.0097217         149.331
0.528                  -0.408718        -135.416          -57.833         35.2039         -57.8319         35.2017      -0.00981869         149.263
0.529                  -0.420303        -135.906         -57.7002         32.8008         -57.6988         32.7978      -0.00991669         149.196
0.53                   -0.432046        -136.398         -57.5698         30.3989         -57.5682         30.3951       -0.0100157         149.128
0.531                  -0.443948        -136.892         -57.4418         27.9991         -57.4401         27.9945       -0.0101157          149.06
0.532                  -0.456013        -137.388         -57.3161         25.6022         -57.3143         25.5966       -0.0102168         148.992
0.533                  -0.468244        -137.887         -57.1926         23.2088         -57.1907         23.2023       -0.0103188         148.924
0.534                  -0.480646        -138.388         -57.0712         20.8196         -57.0692         20.8122       -0.0104219         148.856
0.535                  -0.493223        -138.892         -56.9518         18.4352         -56.9497         18.4269        -0.010526         148.788
0.536                  -0.505979        -139.398         -56.8343         16.0561         -56.8321         16.0469        -0.010631          148.72
0.537                   -0.51892        -139.907         -56.7186         13.6829         -56.7162         13.6728        -0.010737         148.651
0.538                  -0.532051        -140.418         -56.6044         11.3159         -56.6021         11.3049        -0.010844         148.583
0.539                  -0.545379        -140.932         -56.4918          8.9556         -56.4894         8.94371       -0.0109519         148.515
0.54                   -0.558909        -141.449         -56.3806         6.60226         -56.3782         6.58953       -0.0110607         148.446
0.541                   -0.57265        -141.969         -56.2707         4.25615         -56.2683         4.24262       -0.0111703         148.377
0.542                  -0.586609        -142.492         -56.1619         1.91748         -56.1595         1.90319       -0.0112807         148.308
0.543                  -0.600794        -143.017         -56.0542         -0.4136         -56.0518       -0.428604       -0.0113919         148.239
0.544                  -0.615214        -143.546         -55.9473        -2.73699         -55.9449        -2.75265       -0.0115038          148.17
0.545                   -0.62988        -144.078         -55.8413        -5.05265         -55.8389         -5.0689       -0.0116163         148.101
0.546                  -0.644802        -144.613         -55.7359        -7.36058         -55.7336        -7.37736       -0.0117293         148.032
0.547                  -0.659991        -145.151         -55.6311        -9.66084         -55.6288        -9.67808       -0.0118427         147.963
0.548                  -0.675459        -145.693         -55.5267        -11.9535         -55.5245        -11.9712       -0.0119564         147.893
0.549                  -0.691219        -146.238         -55.4226        -14.2388         -55.4205        -14.2567       -0.0120704         147.824
0.55                   -0.707285        -146.786         -55.3188        -16.5168         -55.3168         -16.535       -0.0121844         147.754
0.551                  -0.723673        -147.338         -55.2151        -18.7878         -55.2132        -18.8062       -0.0122984         147.684
0.552                  -0.740397        -147.894         -55.1115         -21.052         -55.1097        -21.0705       -0.0124121         147.614
0.553                  -0.757476        -148.454         -55.0078        -23.3098         -55.0061        -23.3283       -0.0125255         147.544
0.554                  -0.774926        -149.017          -54.904        -25.5615         -54.9024          -25.58       -0.0126383         147.474
0.555                  -0.792768        -149.584            -54.8        -27.8074         -54.7985        -27.8258       -0.0127506         147.404
0.556                  -0.811022        -150.155         -54.6957        -30.0479         -54.6944        -30.0661        -0.012862         147.334
0.557                  -0.829709         -150.73         -54.5911        -32.2835         -54.5898        -32.3014       -0.0129726         147.263
0.558                  -0.848852        -151.308         -54.4861        -34.5145         -54.4849        -34.5322       -0.0130823         147.193
0.559                  -0.868476        -151.891         -54.3806        -36.7415         -54.3795        -36.7588        -0.013191         147.122
0.56                   -0.888606        -152.478         -54.2745        -38.9649         -54.2736        -38.9818       -0.0132988         147.051
0.561                  -0.909269        -153.069          -54.168        -41.1852         -54.1671        -41.2016       -0.0134057          146.98
0.562                  -0.930493        -153.664         -54.0608        -43.4029           -54.06        -43.4187       -0.0135119         146.909
0.563                  -0.952307        -154.264          -53.953        -45.6185         -53.9523        -45.6338       -0.0136176         146.838
0.564                  -0.974743        -154.867         -53.8446        -47.8325          -53.844        -47.8472       -0.0137231         146.767
0.565                  -0.997833        -155.475         -53.7354        -50.0455          -53.735        -50.0596       -0.0138286         146.695
0.566                   -1.02161        -156.087         -53.6257         -52.258         -53.6253        -52.2714       -0.0139345         146.623
0.567                   -1.04611        -156.702         -53.5152        -54.4705         -53.5149        -54.4833       -0.0140412         146.552
0.568                   -1.07136        -157.322          -53.404        -56.6836         -53.4038        -56.6956        -0.014149          146.48
0.569                   -1.09741        -157.946         -53.2922        -58.8978          -53.292        -58.9091       -0.0142585         146.407
0.57                    -1.12428        -158.574         -53.1797        -61.1137         -53.1796        -61.1242         -0.01437         146.335
0.571                   -1.15202        -159.205         -53.0665        -63.3317         -53.0665        -63.3415       -0.0144837         146.263
0.572                   -1.18067         -159.84         -52.9528        -65.5523         -52.9527        -65.5614       -0.0146001          146.19
0.573                   -1.21025        -160.479         -52.8384        -67.7761         -52.8384        -67.7845       -0.0147193         146.117
0.574                   -1.24082        -161.121         -52.7235        -70.0036         -52.7235        -70.0112       -0.0148417         146.045
0.575                    -1.2724        -161.766         -52.6081        -72.2352         -52.6081        -72.2421       -0.0149672         145.971
0.576                   -1.30502        -162.414         -52.4922        -74.4713         -52.4923        -74.4775       -0.0150961         145.898
0.577                   -1.33873        -163.064         -52.3759        -76.7124          -52.376        -76.7179       -0.0152284         145.825
0.578                   -1.37355        -163.717         -52.2592        -78.9589         -52.2593        -78.9638       -0.0153641         145.751
0.579                   -1.40952        -164.372         -52.1423        -81.2111         -52.1424        -81.2154       -0.0155032         145.678
0.58                    -1.44664        -165.029         -52.0251        -83.4694         -52.0253        -83.4731       -0.0156457         145.604
0.581                   -1.48495        -165.687         -51.9078        -85.7341          -51.908        -85.7373       -0.0157915          145.53
0.582                   -1.52447        -166.345         -51.7905        -88.0055         -51.7906        -88.0081       -0.0159406         145.456
0.583                   -1.56519        -167.005         -51.6731        -90.2838         -51.6732        -90.2859       -0.0160928         145.381
0.584                   -1.60712        -167.664         -51.5559        -92.5692          -51.556        -92.5708       -0.0162482         145.307
0.585                   -1.65027        -168.323         -51.4389        -94.8618         -51.4389         -94.863       -0.0164066         145.232
0.586                   -1.69462        -168.981         -51.3221        -97.1617         -51.3222        -97.1626        -0.016568         145.158
0.587                   -1.74015        -169.637         -51.2057        -99.4691         -51.2058        -99.4696       -0.0167323         145.083
0.588                   -1.78684        -170.292         -51.0898        -101.784         -51.0898        -101.784       -0.0168995         145.007
0.589                   -1.83465        -170.945         -50.9745        -104.106         -50.9745        -104.106       -0.0170694         144.932
0.59                    -1.88353        -171.595         -50.8598        -106.435         -50.8598        -106.435       -0.0172421         144.857
0.591                   -1.93344        -172.242         -50.7458        -108.772         -50.7458        -108.771       -0.0174175         144.781
0.592                   -1.98431        -172.885         -50.6327        -111.115         -50.6327        -111.115       -0.0175956         144.705
0.593                   -2.03607        -173.525         -50.5206        -113.465         -50.5205        -113.465       -0.0177764         144.629
0.594                   -2.08864         -174.16         -50.4095        -115.822         -50.4094        -115.821       -0.0179598         144.553
0.595                   -2.14195        -174.792         -50.2994        -118.185         -50.2993        -118.184       -0.0181459         144.477
0.596                   -2.19589        -175.418         -50.1906        -120.553         -50.1905        -120.552       -0.0183347         144.401
0.597                   -2.25037         -176.04         -50.0831        -122.926         -50.0829        -122.925       -0.0185261         144.324
0.598                   -2.30529        -176.657         -49.9768        -125.304         -49.9767        -125.303       -0.0187203         144.247
0.599                   -2.36056         -177.27          -49.872        -127.686         -49.8719        -127.686       -0.0189172          144.17
0.6                     -2.41607        -177.878         -49.7686        -130.072         -49.7685        -130.072       -0.0191169         144.093
0.601                   -2.47171        -178.482         -49.6668        -132.461         -49.6667        -132.461       -0.0193194         144.015
0.602                    -2.5274        -179.082         -49.5665        -134.853         -49.5663        -134.852       -0.0195247         143.938
0.603                   -2.58303        -179.679         -49.4677        -137.246         -49.4676        -137.245        -0.019733          143.86
0.604                   -2.63853         179.727         -49.3706         -139.64         -49.3705         -139.64       -0.0199442         143.782
0.605                   -2.69381         179.136         -49.2751        -142.035          -49.275        -142.034       -0.0201584         143.704
0.606                   -2.74881         178.547         -49.1812         -144.43         -49.1811        -144.429       -0.0203757         143.625
0.607                   -2.80347         177.959         -49.0889        -146.823         -49.0889        -146.823       -0.0205961         143.547
0.608                   -2.85774         177.372         -48.9983        -149.216         -48.9982        -149.215       -0.0208198         143.468
0.609                   -2.91158         176.784         -48.9092        -151.606         -48.9092        -151.605       -0.0210466         143.389
0.61                    -2.96498         176.195         -48.8217        -153.993         -48.8217        -153.992       -0.0212768          143.31
0.611                   -3.01792         175.604         -48.7358        -156.377         -48.7358        -156.376       -0.0215103          143.23
0.612                   -3.07041         175.011         -48.6513        -158.757         -48.6513        -158.756       -0.0217472          143.15
0.613                   -3.12246         174.414         -48.5683        -161.132         -48.5683        -161.132       -0.0219875         143.071
0.614                   -3.17411         173.813         -48.4866        -163.502         -48.4866        -163.502       -0.0222313          142.99
0.615                   -3.22539         173.207         -48.4062        -165.867         -48.4063        -165.867       -0.0224785          142.91
0.616                   -3.27636         172.594         -48.3271        -168.226         -48.3271        -168.226       -0.0227291          142.83
0.617                   -3.32708         171.976         -48.2492        -170.579         -48.2492        -170.578       -0.0229831         142.749
0.618                   -3.37762          171.35         -48.1723        -172.925         -48.1724        -172.924       -0.0232406         142.668
0.619                   -3.42806         170.716         -48.0965        -175.264         -48.0965        -175.264       -0.0235015         142.586
0.62                     -3.4785         170.073         -48.0216        -177.596         -48.0216        -177.596       -0.0237658         142.505
0.621                   -3.52902         169.422         -47.9475        -179.921         -47.9476        -179.921       -0.0240335         142.423
0.622                   -3.57974          168.76         -47.8742         177.761         -47.8743         177.762       -0.0243046         142.341
0.623                   -3.63076         168.089         -47.8016         175.451         -47.8017         175.452        -0.024579         142.259
0.624                    -3.6822         167.407         -47.7297         173.149         -47.7297         173.149       -0.0248569         142.177
0.625                   -3.73416         166.715         -47.6582         170.853         -47.6583         170.854       -0.0251381         142.094
0.626                   -3.78679         166.011         -47.5872         168.566         -47.5873         168.566       -0.0254228         142.011
0.627                   -3.84019         165.296         -47.5166         166.285         -47.5166         166.286        -0.025711         141.928
0.628                    -3.8945         164.569         -47.4462         164.012         -47.4463         164.012       -0.0260027         141.844
0.629                   -3.94985          163.83         -47.3762         161.745         -47.3762         161.746       -0.0262981          141.76
0.63                    -4.00636          163.08         -47.3062         159.485         -47.3063         159.486       -0.0265971         141.676
0.631                   -4.06419         162.318         -47.2365         157.232         -47.2365         157.233          -0.0269         141.592
0.632                   -4.12345         161.543         -47.1667         154.985         -47.1668         154.985       -0.0272067         141.507
0.633                    -4.1843         160.757          -47.097         152.744         -47.0971         152.744       -0.0275174         141.422
0.634                   -4.24687         159.958         -47.0273         150.508         -47.0274         150.508       -0.0278322         141.337
0.635                   -4.31129         159.148         -46.9576         148.278         -46.9576         148.278       -0.0281513         141.252
0.636                   -4.37772         158.326         -46.8877         146.052         -46.8877         146.053       -0.0284747         141.166
0.637                    -4.4463         157.493         -46.8177         143.831         -46.8178         143.832       -0.0288025          141.08
0.638                   -4.51716         156.648         -46.7476         141.615         -46.7477         141.615       -0.0291349         140.994
0.639                   -4.59047         155.793         -46.6774         139.402         -46.6774         139.403        -0.029472         140.907
0.64                    -4.66636         154.927          -46.607         137.194          -46.607         137.194        -0.029814          140.82
0.641                   -4.74499         154.051         -46.5364         134.988         -46.5365         134.988       -0.0301609         140.733
0.642                    -4.8265         153.165         -46.4657         132.785         -46.4657         132.785        -0.030513         140.645
0.643                   -4.91104         152.269         -46.3949         130.585         -46.3949         130.585       -0.0308702         140.557
0.644                   -4.99878         151.365         -46.3239         128.388         -46.3239         128.388       -0.0312329         140.469
0.645                   -5.08985         150.453         -46.2528         126.192         -46.2528         126.192        -0.031601          140.38
0.646                   -5.18442         149.534         -46.1816         123.999         -46.1816         123.999       -0.0319748         140.291
0.647                   -5.28263         148.608         -46.1103         121.807         -46.1103         121.807       -0.0323544         140.202
0.648                   -5.38464         147.675         -46.0389         119.617         -46.0389         119.616       -0.0327398         140.112
0.649                    -5.4906         146.738         -45.9675         117.428         -45.9675         117.427       -0.0331314         140.022
0.65                    -5.60066         145.797         -45.8962          115.24         -45.8962         115.239       -0.0335291         139.932
0.651                   -5.71498         144.853         -45.8248         113.053         -45.8248         113.052       -0.0339333         139.841
0.652                   -5.83369         143.907         -45.7535         110.867         -45.7535         110.867       -0.0343439          139.75
0.653                   -5.95694          142.96         -45.6823         108.682         -45.6823         108.682       -0.0347612         139.658
0.654                   -6.08488         142.014         -45.6113         106.498         -45.6113         106.498       -0.0351853         139.566
0.655                   -6.21764          141.07         -45.5404         104.315         -45.5404         104.314       -0.0356165         139.474
0.656                   -6.35535          140.13         -45.4697         102.132         -45.4697         102.132       -0.0360547         139.381
0.657                   -6.49814         139.195         -45.3993         99.9512         -45.3993         99.9509       -0.0365003         139.288
0.658                   -6.64612         138.266         -45.3291         97.7711         -45.3291         97.7708       -0.0369534         139.195
0.659                   -6.79939         137.346         -45.2592         95.5922         -45.2592         95.5919       -0.0374142         139.101
0.66                    -6.95806         136.437         -45.1897         93.4146         -45.1896         93.4143       -0.0378828         139.007
0.661                    -7.1222          135.54         -45.1205         91.2386         -45.1204         91.2383       -0.0383595         138.912
0.662                    -7.2919         134.658         -45.0516         89.0643         -45.0516          89.064       -0.0388444         138.817
0.663                    -7.4672         133.793         -44.9832         86.8919         -44.9832         86.8916       -0.0393378         138.721
0.664                   -7.64814         132.948         -44.9152         84.7216         -44.9151         84.7214       -0.0398398         138.625
0.665                   -7.83474         132.124         -44.8476         82.5538         -44.8475         82.5536       -0.0403506         138.529
0.666                     -8.027         131.325         -44.7804         80.3887         -44.7803         80.3884       -0.0408705         138.432
0.667                   -8.22488         130.554         -44.7137         78.2265         -44.7136         78.2262       -0.0413997         138.334
0.668                   -8.42832         129.812         -44.6474         76.0675         -44.6473         76.0673       -0.0419384         138.237
0.669                   -8.63725         129.104         -44.5816          73.912         -44.5815         73.9118       -0.0424868         138.138
0.67                    -8.85153         128.432         -44.5162         71.7604         -44.5161         71.7602       -0.0430452         138.039
0.671                   -9.07101         127.799         -44.4512         69.6129         -44.4511         69.6127       -0.0436138          137.94
0.672                   -9.29549         127.208         -44.3866         67.4698         -44.3866         67.4696       -0.0441929          137.84
0.673                   -9.52472         126.664         -44.3225         65.3314         -44.3224         65.3312       -0.0447827          137.74
0.674                    -9.7584         126.168         -44.2587         63.1981         -44.2586         63.1978       -0.0453835         137.639
0.675                    -9.9962         125.725         -44.1953           61.07         -44.1952         61.0697       -0.0459956         137.538
0.676                   -10.2377         125.338         -44.1322         58.9475          -44.132         58.9471       -0.0466193         137.436
0.677                   -10.4824          125.01         -44.0693         56.8308         -44.0692         56.8304       -0.0472548         137.333
0.678                   -10.7299         124.744         -44.0068         54.7202         -44.0066         54.7198       -0.0479024          137.23
0.679                   -10.9795         124.544         -43.9444         52.6159         -43.9443         52.6155       -0.0485625         137.127
0.68                    -11.2304         124.411         -43.8822         50.5182         -43.8821         50.5177       -0.0492354         137.023
0.681                   -11.4821          124.35         -43.8201         48.4272           -43.82         48.4267       -0.0499214         136.918
0.682                   -11.7337         124.361         -43.7581         46.3431          -43.758         46.3426       -0.0506208         136.813
0.683                   -11.9842         124.446         -43.6962         44.2662          -43.696         44.2656        -0.051334         136.707
0.684                   -12.2328         124.607         -43.6342         42.1965          -43.634         42.1958       -0.0520614           136.6
0.685                   -12.4784         124.845         -43.5721         40.1341         -43.5719         40.1335       -0.0528032         136.493
0.686                   -12.7199         125.158         -43.5099         38.0793         -43.5097         38.0786         -0.05356         136.386
0.687                   -12.9563         125.547         -43.4474          36.032         -43.4473         36.0313        -0.054332         136.277
0.688                   -13.1864         126.009         -43.3848         33.9923         -43.3846         33.9916       -0.0551197         136.168
0.689                    -13.409          126.54         -43.3218         31.9603         -43.3217         31.9595       -0.0559235         136.059
0.69                    -13.6231         127.139         -43.2585          29.936         -43.2583         29.9352       -0.0567438         135.948
0.691                   -13.8276         127.798         -43.1947         27.9193         -43.1946         27.9185        -0.057581         135.837
0.692                   -14.0215         128.513         -43.1304         25.9103         -43.1303         25.9094       -0.0584357         135.725
0.693                    -14.204         129.276         -43.0657         23.9089         -43.0655          23.908       -0.0593082         135.613
0.694                   -14.3743          130.08         -43.0002         21.9149         -43.0002          21.914       -0.0601991           135.5
0.695                   -14.5318         130.915         -42.9342         19.9284         -42.9341         19.9275       -0.0611088         135.386
0.696                   -14.6761         131.774         -42.8674         17.9492         -42.8673         17.9483       -0.0620378         135.271
0.697                   -14.8071         132.645         -42.7998         15.9772         -42.7998         15.9763       -0.0629868         135.156