! TOUCHSTONE file generated by CST MICROWAVE STUDIO
! Date and time: Mon Oct 26 12:07:18 2020
! Project name: Scenario_1_Circular_Tissue_out_of_Line_v2.cst
! Parameters = {dy1=-34.6; L_HA=400; MT=2.54; Rad_Dielectric=30; Rad_Lower=7.3; Rad_Upper=30; a_HA=580; a_WG=246; b_HA=500; b_WG=121; c_HA=0; c_WG=187; d_feed=85; dx1=173; h_feed=15; h_lower=18; h_upper=40}
! Header version: 2018
! Port assignment regex: !\s*Touchstone port\s*([0-9]+)\s*=\s*(CST MWS port|CST DS port)\s*([0-9]+|Zmin|Zmax)\s*\(\"(.*)\"\)(\s*mode\s*([0-9]+))?.*
! Touchstone port assignment:
! Touchstone port 1 = CST MWS port 1 ("")
! Touchstone port 2 = CST MWS port 2 ("")
# GHz S DB R 50
0.5                    -0.102518        -122.534          -56.593         131.181         -56.5907         131.251      -0.00727965         151.138
0.501                  -0.107149        -122.971         -56.3948         130.291         -56.3927         130.357      -0.00732801         151.073
0.502                  -0.111829        -123.413         -56.1954         129.389         -56.1933          129.45      -0.00737712         151.008
0.503                  -0.116584        -123.858         -55.9946         128.473         -55.9925          128.53      -0.00742699         150.942
0.504                   -0.12144        -124.309         -55.7924         127.543         -55.7905         127.597      -0.00747765         150.877
0.505                  -0.126428        -124.764          -55.589           126.6         -55.5871         126.649      -0.00752912         150.811
0.506                  -0.131576        -125.223         -55.3842         125.642         -55.3825         125.688      -0.00758144         150.745
0.507                  -0.136917        -125.687         -55.1782         124.669         -55.1766         124.711      -0.00763463          150.68
0.508                  -0.142484        -126.156          -54.971         123.681         -54.9694          123.72      -0.00768873         150.614
0.509                  -0.148309        -126.629         -54.7625         122.677         -54.7611         122.713      -0.00774377         150.548
0.51                   -0.154429        -127.107         -54.5529         121.658         -54.5515          121.69      -0.00779978         150.482
0.511                  -0.160879        -127.589         -54.3421         120.621         -54.3408         120.651       -0.0078568         150.416
0.512                  -0.167696        -128.077         -54.1301         119.568          -54.129         119.595      -0.00791488          150.35
0.513                  -0.174918        -128.569         -53.9171         118.498         -53.9161         118.521      -0.00797404         150.283
0.514                  -0.182583        -129.065         -53.7031         117.409         -53.7021          117.43      -0.00803435         150.217
0.515                  -0.190729        -129.566         -53.4881         116.303         -53.4872         116.321      -0.00809584          150.15
0.516                  -0.199397        -130.072         -53.2721         115.177         -53.2713         115.193      -0.00815857         150.084
0.517                  -0.208624        -130.581         -53.0552         114.032         -53.0546         114.046       -0.0082226         150.017
0.518                  -0.218449        -131.095         -52.8376         112.868         -52.8371         112.879      -0.00828797          149.95
0.519                  -0.228911        -131.614         -52.6192         111.683         -52.6188         111.693      -0.00835474         149.884
0.52                   -0.240046        -132.136         -52.4001         110.478         -52.3998         110.485      -0.00842299         149.817
0.521                  -0.251891        -132.661         -52.1804         109.251         -52.1802         109.257      -0.00849278          149.75
0.522                  -0.264481         -133.19         -51.9601         108.003         -51.9601         108.007      -0.00856417         149.683
0.523                  -0.277848        -133.723         -51.7395         106.733         -51.7396         106.735      -0.00863725         149.615
0.524                  -0.292023        -134.258         -51.5185         105.439         -51.5187          105.44       -0.0087121         149.548
0.525                  -0.307034        -134.796         -51.2972         104.123         -51.2976         104.123      -0.00878878         149.481
0.526                  -0.322907        -135.337         -51.0759         102.784         -51.0764         102.782      -0.00886741         149.413
0.527                  -0.339664         -135.88         -50.8545          101.42         -50.8552         101.417      -0.00894805         149.346
0.528                  -0.357323        -136.424         -50.6333         100.032         -50.6341         100.027      -0.00903081         149.278
0.529                  -0.375898         -136.97         -50.4123         98.6191         -50.4132         98.6136      -0.00911579          149.21
0.53                   -0.395401        -137.517         -50.1917         97.1812         -50.1927         97.1748      -0.00920309         149.142
0.531                  -0.415837        -138.065         -49.9716         95.7178         -49.9728         95.7106      -0.00929282         149.074
0.532                  -0.437206        -138.613         -49.7522         94.2287         -49.7535         94.2208      -0.00938508         149.006
0.533                  -0.459506        -139.162         -49.5336         92.7136         -49.5351         92.7051         -0.00948         148.938
0.534                  -0.482728        -139.709         -49.3161         91.1724         -49.3177         91.1634      -0.00957767          148.87
0.535                  -0.506856        -140.256         -49.0997         89.6049         -49.1015         89.5955      -0.00967823         148.801
0.536                  -0.531872        -140.802         -48.8848          88.011         -48.8867         88.0013      -0.00978179         148.733
0.537                  -0.557752        -141.346         -48.6714         86.3909         -48.6734          86.381      -0.00988848         148.664
0.538                  -0.584465        -141.888         -48.4597         84.7444         -48.4619         84.7344       -0.0099984         148.595
0.539                  -0.611976        -142.429           -48.25         83.0719         -48.2523         83.0619       -0.0101117         148.527
0.54                   -0.640247        -142.966         -48.0425         81.3735         -48.0449         81.3636       -0.0102284         148.458
0.541                  -0.669233        -143.501         -47.8373         79.6495         -47.8399         79.6399       -0.0103488         148.389
0.542                  -0.698885        -144.032         -47.6347         77.9005         -47.6374         77.8911       -0.0104728         148.319
0.543                  -0.729152        -144.561         -47.4349          76.127         -47.4377          76.118       -0.0106006          148.25
0.544                  -0.759977        -145.085         -47.2381         74.3296          -47.241          74.321       -0.0107323         148.181
0.545                  -0.791303        -145.606         -47.0445          72.509         -47.0475          72.501       -0.0108679         148.111
0.546                  -0.823067        -146.123         -46.8542         70.6661         -46.8574         70.6588       -0.0110076         148.042
0.547                  -0.855208        -146.636         -46.6676          68.802         -46.6709         68.7954       -0.0111513         147.972
0.548                   -0.88766        -147.145         -46.4848         66.9177         -46.4882         66.9118       -0.0112992         147.902
0.549                  -0.920359        -147.649          -46.306         65.0143         -46.3094         65.0093       -0.0114511         147.833
0.55                   -0.953238         -148.15         -46.1313         63.0933         -46.1348         63.0892       -0.0116072         147.763
0.551                  -0.986232        -148.646         -45.9609         61.1559         -45.9644         61.1529       -0.0117673         147.692
0.552                   -1.01928        -149.139         -45.7949         59.2038         -45.7985         59.2018       -0.0119314         147.622
0.553                   -1.05231        -149.627         -45.6335         57.2385         -45.6371         57.2375       -0.0120995         147.552
0.554                   -1.08527        -150.112         -45.4768         55.2616         -45.4805         55.2617       -0.0122715         147.482
0.555                   -1.11809        -150.593         -45.3249         53.2749         -45.3285         53.2761       -0.0124471         147.411
0.556                   -1.15072        -151.071         -45.1778         51.2802         -45.1814         51.2825       -0.0126263         147.341
0.557                   -1.18311        -151.545         -45.0356         49.2792         -45.0392         49.2827       -0.0128088          147.27
0.558                    -1.2152        -152.017         -44.8983         47.2739         -44.9019         47.2785       -0.0129945         147.199
0.559                   -1.24694        -152.486          -44.766          45.266         -44.7696         45.2718       -0.0131831         147.128
0.56                     -1.2783        -152.953         -44.6386         43.2575         -44.6421         43.2644       -0.0133744         147.057
0.561                   -1.30923        -153.417          -44.516         41.2502         -44.5195         41.2582        -0.013568         146.986
0.562                    -1.3397         -153.88         -44.3983         39.2458         -44.4017         39.2548       -0.0137637         146.915
0.563                   -1.36967        -154.342         -44.2853         37.2462         -44.2886         37.2562       -0.0139612         146.844
0.564                   -1.39912        -154.803          -44.177         35.2529         -44.1802          35.264       -0.0141602         146.772
0.565                   -1.42802        -155.264         -44.0732         33.2677         -44.0763         33.2797       -0.0143604         146.701
0.566                   -1.45635        -155.724         -43.9738         31.2921         -43.9768          31.305       -0.0145614         146.629
0.567                    -1.4841        -156.184         -43.8787         29.3276         -43.8815         29.3413        -0.014763         146.558
0.568                   -1.51125        -156.645         -43.7876         27.3754         -43.7903         27.3898       -0.0149649         146.486
0.569                    -1.5378        -157.107         -43.7004         25.4369         -43.7031          25.452       -0.0151669         146.414
0.57                    -1.56374        -157.571          -43.617         23.5132         -43.6195         23.5289       -0.0153685         146.342
0.571                   -1.58907        -158.036         -43.5371         21.6052         -43.5395         21.6215       -0.0155698          146.27
0.572                   -1.61379        -158.504         -43.4606          19.714         -43.4628         19.7308       -0.0157703         146.197
0.573                   -1.63792        -158.974         -43.3871         17.8403         -43.3892         17.8575         -0.01597         146.125
0.574                   -1.66144        -159.447         -43.3166         15.9849         -43.3185         16.0023       -0.0161686         146.053
0.575                   -1.68439        -159.923         -43.2489         14.1482         -43.2506         14.1659       -0.0163662          145.98
0.576                   -1.70677        -160.403         -43.1836         12.3307         -43.1852         12.3486       -0.0165625         145.907
0.577                    -1.7286        -160.888         -43.1206         10.5329         -43.1221         10.5509       -0.0167575         145.834
0.578                    -1.7499        -161.376         -43.0597         8.75494          -43.061         8.77296       -0.0169512         145.761
0.579                   -1.77068        -161.869         -43.0007         6.99706         -43.0019         7.01505       -0.0171435         145.688
0.58                    -1.79098        -162.367         -42.9434         5.25932         -42.9445         5.27722       -0.0173345         145.615
0.581                   -1.81082        -162.871         -42.8877         3.54174         -42.8886         3.55948       -0.0175242         145.541
0.582                   -1.83023         -163.38         -42.8332         1.84424          -42.834         1.86177       -0.0177127         145.468
0.583                   -1.84922        -163.896         -42.7799        0.166678         -42.7806        0.183943       -0.0179001         145.394
0.584                   -1.86785        -164.417         -42.7275        -1.49114         -42.7281        -1.47419       -0.0180863          145.32
0.585                   -1.88613        -164.945          -42.676        -3.12947         -42.6764        -3.11288       -0.0182717         145.246
0.586                    -1.9041        -165.481         -42.6251        -4.74862         -42.6254        -4.73245       -0.0184562         145.172
0.587                    -1.9218        -166.023         -42.5747        -6.34896         -42.5749        -6.33323       -0.0186399         145.097
0.588                   -1.93927        -166.572         -42.5246        -7.93086         -42.5248        -7.91562       -0.0188232         145.023
0.589                   -1.95653        -167.129         -42.4748        -9.49477         -42.4749        -9.48004        -0.019006         144.948
0.59                    -1.97363        -167.694         -42.4251        -11.0411         -42.4251         -11.027       -0.0191886         144.873
0.591                    -1.9906        -168.268         -42.3754        -12.5704         -42.3753        -12.5568        -0.019371         144.798
0.592                    -2.0075        -168.849         -42.3255        -14.0832         -42.3254        -14.0702       -0.0195535         144.722
0.593                   -2.02436        -169.439         -42.2754        -15.5799         -42.2753        -15.5675       -0.0197362         144.647
0.594                   -2.04122        -170.038          -42.225        -17.0612         -42.2248        -17.0494       -0.0199193         144.571
0.595                   -2.05813        -170.646         -42.1742        -18.5275         -42.1739        -18.5164       -0.0201028         144.495
0.596                   -2.07513        -171.263         -42.1228        -19.9794         -42.1225        -19.9689        -0.020287         144.419
0.597                   -2.09227         -171.89         -42.0709        -21.4176         -42.0706        -21.4077       -0.0204721         144.343
0.598                   -2.10959        -172.526         -42.0183        -22.8424          -42.018        -22.8332       -0.0206581         144.267
0.599                   -2.12715        -173.172         -41.9651        -24.2546         -41.9647        -24.2461       -0.0208452          144.19
0.6                       -2.145        -173.828          -41.911        -25.6547         -41.9106        -25.6468       -0.0210335         144.113
0.601                   -2.16317        -174.494         -41.8561        -27.0433         -41.8557         -27.036       -0.0212232         144.036
0.602                   -2.18174         -175.17         -41.8004        -28.4209            -41.8        -28.4142       -0.0214144         143.959
0.603                   -2.20074        -175.857         -41.7437         -29.788         -41.7433         -29.782       -0.0216073         143.882
0.604                   -2.22023        -176.554         -41.6861        -31.1454         -41.6857        -31.1399       -0.0218019         143.804
0.605                   -2.24027        -177.263         -41.6274        -32.4934         -41.6271        -32.4885       -0.0219983         143.726
0.606                   -2.26092        -177.982         -41.5678        -33.8326         -41.5674        -33.8284       -0.0221968         143.648
0.607                   -2.28223        -178.712         -41.5071        -35.1637         -41.5068        -35.1599       -0.0223973          143.57
0.608                   -2.30426        -179.453         -41.4453         -36.487          -41.445        -36.4838       -0.0226001         143.491
0.609                   -2.32707         179.794         -41.3825        -37.8032         -41.3822        -37.8005       -0.0228051         143.413
0.61                    -2.35073         179.029         -41.3185        -39.1127         -41.3182        -39.1105       -0.0230126         143.334
0.611                    -2.3753         178.254         -41.2534        -40.4161         -41.2532        -40.4143       -0.0232226         143.255
0.612                   -2.40084         177.466         -41.1872        -41.7138          -41.187        -41.7124       -0.0234352         143.175
0.613                   -2.42742         176.667         -41.1198        -43.0063         -41.1197        -43.0053       -0.0236505         143.096
0.614                   -2.45511         175.855         -41.0513        -44.2942         -41.0512        -44.2935       -0.0238685         143.016
0.615                   -2.48398         175.032         -40.9817        -45.5778         -40.9816        -45.5774       -0.0240895         142.936
0.616                   -2.51411         174.197         -40.9109        -46.8577         -40.9108        -46.8576       -0.0243134         142.856
0.617                   -2.54556          173.35         -40.8389        -48.1342         -40.8389        -48.1344       -0.0245403         142.775
0.618                   -2.57842          172.49         -40.7659        -49.4078         -40.7659        -49.4082       -0.0247704         142.694
0.619                   -2.61275         171.618         -40.6916         -50.679         -40.6917        -50.6796       -0.0250036         142.613
0.62                    -2.64865         170.734         -40.6163        -51.9482         -40.6164        -51.9489       -0.0252402         142.532
0.621                   -2.68618         169.838         -40.5399        -53.2158           -40.54        -53.2166       -0.0254801         142.451
0.622                   -2.72544         168.929         -40.4624        -54.4821         -40.4625         -54.483       -0.0257235         142.369
0.623                   -2.76652         168.008         -40.3838        -55.7476         -40.3839        -55.7485       -0.0259703         142.287
0.624                   -2.80949         167.075         -40.3041        -57.0127         -40.3043        -57.0136       -0.0262208         142.205
0.625                   -2.85446          166.13         -40.2234        -58.2777         -40.2236        -58.2786       -0.0264749         142.122
0.626                    -2.9015         165.172         -40.1417         -59.543         -40.1419        -59.5439       -0.0267328         142.039
0.627                   -2.95073         164.202          -40.059        -60.8089         -40.0591        -60.8098       -0.0269945         141.956
0.628                   -3.00222          163.22         -39.9753        -62.0759         -39.9754        -62.0766       -0.0272601         141.873
0.629                   -3.05609         162.226         -39.8907        -63.3441         -39.8908        -63.3448       -0.0275297         141.789
0.63                    -3.11243          161.22         -39.8051        -64.6141         -39.8052        -64.6145       -0.0278033         141.706
0.631                   -3.17135         160.202         -39.7187        -65.8859         -39.7188        -65.8863        -0.028081         141.621
0.632                   -3.23295         159.172         -39.6314        -67.1601         -39.6314        -67.1603        -0.028363         141.537
0.633                   -3.29734         158.131         -39.5433        -68.4368         -39.5433        -68.4368       -0.0286492         141.452
0.634                   -3.36464         157.079         -39.4544        -69.7164         -39.4543        -69.7162       -0.0289399         141.367
0.635                   -3.43494         156.016         -39.3647        -70.9991         -39.3646        -70.9987        -0.029235         141.282
0.636                   -3.50838         154.941         -39.2743        -72.2852         -39.2741        -72.2846       -0.0295346         141.196
0.637                   -3.58506         153.857         -39.1833        -73.5749          -39.183        -73.5741       -0.0298388          141.11
0.638                   -3.66511         152.761         -39.0916        -74.8684         -39.0912        -74.8675       -0.0301478         141.024
0.639                   -3.74865         151.656         -38.9993        -76.1661         -38.9989         -76.165       -0.0304616         140.938
0.64                     -3.8358         150.541         -38.9065         -77.468         -38.9059        -77.4668       -0.0307803         140.851
0.641                    -3.9267         149.416         -38.8132        -78.7745         -38.8125        -78.7732       -0.0311041         140.764
0.642                   -4.02147         148.283         -38.7194        -80.0856         -38.7185        -80.0842       -0.0314329         140.676
0.643                   -4.12025          147.14         -38.6251        -81.4015         -38.6242        -81.4001       -0.0317671         140.588
0.644                   -4.22317          145.99         -38.5306        -82.7225         -38.5295        -82.7211       -0.0321066           140.5
0.645                   -4.33037         144.832         -38.4357        -84.0486         -38.4344        -84.0472       -0.0324516         140.412
0.646                   -4.44199         143.667         -38.3405          -85.38         -38.3391        -85.3787       -0.0328023         140.323
0.647                   -4.55819         142.495         -38.2451        -86.7167         -38.2435        -86.7156       -0.0331587         140.234
0.648                   -4.67911         141.317         -38.1496        -88.0589         -38.1478         -88.058       -0.0335211         140.144
0.649                    -4.8049         140.133         -38.0539        -89.4066          -38.052         -89.406       -0.0338896         140.054
0.65                    -4.93573         138.945         -37.9582        -90.7599         -37.9561        -90.7596       -0.0342644         139.964
0.651                   -5.07174         137.752         -37.8625        -92.1189         -37.8602         -92.119       -0.0346457         139.874
0.652                   -5.21312         136.556         -37.7668        -93.4834         -37.7643         -93.484       -0.0350336         139.783
0.653                   -5.36003         135.358         -37.6712        -94.8537         -37.6685        -94.8548       -0.0354284         139.691
0.654                   -5.51265         134.157         -37.5758        -96.2295         -37.5729        -96.2313       -0.0358304         139.599
0.655                   -5.67116         132.956         -37.4807        -97.6109         -37.4775        -97.6135       -0.0362397         139.507
0.656                   -5.83575         131.754         -37.3857        -98.9978         -37.3824        -99.0012       -0.0366566         139.415
0.657                   -6.00663         130.554         -37.2911         -100.39         -37.2876        -100.394       -0.0370813         139.322
0.658                   -6.18399         129.355         -37.1969        -101.788         -37.1932        -101.793       -0.0375142         139.228
0.659                   -6.36805         128.159         -37.1031        -103.191         -37.0992        -103.197       -0.0379556         139.135
0.66                    -6.55904         126.968         -37.0098        -104.598         -37.0057        -104.606       -0.0384057          139.04
0.661                   -6.75719         125.783         -36.9171        -106.011         -36.9128         -106.02       -0.0388647         138.946
0.662                   -6.96275         124.604         -36.8249        -107.429         -36.8204        -107.439       -0.0393332         138.851
0.663                   -7.17598         123.434         -36.7333         -108.85         -36.7287        -108.862       -0.0398113         138.755
0.664                   -7.39715         122.274         -36.6425        -110.277         -36.6377         -110.29       -0.0402993         138.659
0.665                   -7.62655         121.126         -36.5523        -111.707         -36.5474        -111.722       -0.0407976         138.563
0.666                   -7.86449         119.992         -36.4629         -113.14          -36.458        -113.157       -0.0413065         138.466
0.667                    -8.1113         118.873         -36.3744        -114.578         -36.3693        -114.596       -0.0418262         138.369
0.668                   -8.36731         117.773         -36.2867        -116.018         -36.2815        -116.039       -0.0423572         138.271
0.669                   -8.63291         116.693         -36.1998        -117.461         -36.1946        -117.483       -0.0428996         138.173
0.67                    -8.90847         115.637         -36.1139        -118.906         -36.1086        -118.931       -0.0434537         138.074
0.671                   -9.19443         114.608         -36.0289        -120.354         -36.0236         -120.38       -0.0440198         137.975
0.672                   -9.49122         113.608         -35.9449        -121.803         -35.9396        -121.831       -0.0445981         137.875
0.673                   -9.79932         112.642         -35.8619        -123.254         -35.8566        -123.284       -0.0451889         137.775
0.674                   -10.1192         111.715         -35.7799        -124.705         -35.7746        -124.737       -0.0457923         137.674
0.675                   -10.4515          110.83         -35.6989        -126.157         -35.6937        -126.191       -0.0464086         137.573
0.676                   -10.7967         109.995          -35.619        -127.609         -35.6139        -127.645        -0.047038         137.471
0.677                   -11.1554         109.214         -35.5401         -129.06         -35.5351        -129.098       -0.0476807         137.369
0.678                   -11.5283         108.495         -35.4623        -130.511         -35.4573         -130.55       -0.0483369         137.266
0.679                   -11.9161         107.847         -35.3854         -131.96         -35.3807        -132.002       -0.0490067         137.163
0.68                    -12.3193          107.28         -35.3097        -133.408         -35.3051        -133.451       -0.0496903         137.059
0.681                   -12.7388         106.804         -35.2349        -134.853         -35.2305        -134.898        -0.050388         136.954
0.682                   -13.1751         106.432         -35.1612        -136.296          -35.157        -136.342       -0.0510999         136.849
0.683                    -13.629          106.18         -35.0885        -137.736         -35.0845        -137.783       -0.0518262         136.744
0.684                    -14.101         106.065         -35.0167        -139.173          -35.013        -139.221       -0.0525672         136.637
0.685                   -14.5914         106.109         -34.9459        -140.605         -34.9424        -140.655        -0.053323         136.531
0.686                   -15.1006         106.336          -34.876        -142.034         -34.8728        -142.084        -0.054094         136.423
0.687                   -15.6282         106.775          -34.807        -143.458         -34.8041        -143.508       -0.0548803         136.315
0.688                   -16.1736         107.458         -34.7388        -144.876         -34.7362        -144.928       -0.0556823         136.206
0.689                   -16.7352         108.426         -34.6714         -146.29         -34.6691        -146.341       -0.0565002         136.097
0.69                    -17.3102         109.722         -34.6047        -147.697         -34.6027        -147.749       -0.0573344         135.987
0.691                   -17.8942         111.396         -34.5388        -149.099         -34.5371         -149.15       -0.0581852         135.877
0.692                   -18.4806         113.499         -34.4735        -150.494         -34.4721        -150.545       -0.0590529         135.765
0.693                   -19.0596         116.084         -34.4088        -151.882         -34.4077        -151.933       -0.0599379         135.653
0.694                   -19.6181         119.197         -34.3447        -153.263         -34.3438        -153.314       -0.0608407          135.54
0.695                   -20.1386         122.866          -34.281        -154.638         -34.2804        -154.687       -0.0617615         135.427
0.696                   -20.6003         127.087         -34.2177        -156.004         -34.2174        -156.053       -0.0627009         135.313
0.697                   -20.9801         131.812         -34.1547        -157.364         -34.1547        -157.411       -0.0636593         135.198