! TOUCHSTONE file generated by CST MICROWAVE STUDIO
! Date and time: Mon Oct 26 12:07:46 2020
! Project name: Scenario_1_Circular_Tissue_out_of_Line_v2.cst
! Parameters = {dy1=17.3; L_HA=400; MT=2.54; Rad_Dielectric=30; Rad_Lower=7.3; Rad_Upper=30; a_HA=580; a_WG=246; b_HA=500; b_WG=121; c_HA=0; c_WG=187; d_feed=85; dx1=173; h_feed=15; h_lower=18; h_upper=40}
! Header version: 2018
! Port assignment regex: !\s*Touchstone port\s*([0-9]+)\s*=\s*(CST MWS port|CST DS port)\s*([0-9]+|Zmin|Zmax)\s*\(\"(.*)\"\)(\s*mode\s*([0-9]+))?.*
! Touchstone port assignment:
! Touchstone port 1 = CST MWS port 1 ("")
! Touchstone port 2 = CST MWS port 2 ("")
# GHz S DB R 50
0.5                    -0.101353        -122.476          -56.581         130.241          -56.581         130.241       -0.0072827          151.14
0.501                   -0.10627        -122.932         -56.3818         129.342         -56.3818         129.342      -0.00733034         151.075
0.502                  -0.111395        -123.391         -56.1814          128.43         -56.1814          128.43      -0.00737857         151.009
0.503                  -0.116736        -123.852         -55.9798         127.506         -55.9799         127.505      -0.00742742         150.944
0.504                  -0.122304        -124.316         -55.7771         126.568         -55.7771         126.567      -0.00747691         150.878
0.505                  -0.128109        -124.782         -55.5731         125.616         -55.5732         125.616      -0.00752709         150.813
0.506                  -0.134162        -125.252          -55.368         124.651         -55.3681         124.651      -0.00757798         150.747
0.507                  -0.140475        -125.724         -55.1618         123.672         -55.1619         123.671      -0.00762962         150.681
0.508                   -0.14706        -126.199         -54.9545         122.677         -54.9546         122.677      -0.00768205         150.615
0.509                  -0.153932        -126.677         -54.7461         121.668         -54.7462         121.667      -0.00773532         150.549
0.51                   -0.161102        -127.158         -54.5366         120.643         -54.5367         120.642      -0.00778948         150.483
0.511                  -0.168587        -127.642         -54.3261         119.603         -54.3262         119.602      -0.00784456         150.417
0.512                  -0.176402        -128.129         -54.1145         118.546         -54.1147         118.545      -0.00790062         150.351
0.513                  -0.184562        -128.618          -53.902         117.472         -53.9022         117.471      -0.00795771         150.285
0.514                  -0.193085        -129.111         -53.6886         116.381         -53.6888          116.38       -0.0080159         150.219
0.515                  -0.201989        -129.607         -53.4743         115.273         -53.4745         115.272      -0.00807524         150.152
0.516                  -0.211292        -130.106         -53.2592         114.146         -53.2594         114.145      -0.00813579         150.086
0.517                  -0.221013        -130.608         -53.0432         113.001         -53.0434             113      -0.00819764         150.019
0.518                  -0.231175        -131.113         -52.8266         111.837         -52.8268         111.836      -0.00826084         149.952
0.519                  -0.241797        -131.621         -52.6092         110.654         -52.6094         110.653      -0.00832547         149.885
0.52                   -0.252901        -132.131         -52.3913          109.45         -52.3915         109.449      -0.00839161         149.818
0.521                  -0.264512        -132.645         -52.1728         108.227          -52.173         108.226      -0.00845936         149.751
0.522                  -0.276652        -133.162         -51.9539         106.982          -51.954         106.981      -0.00852879         149.684
0.523                  -0.289346        -133.682         -51.7345         105.716         -51.7347         105.715      -0.00859999         149.617
0.524                  -0.302619        -134.204         -51.5149         104.428         -51.5151         104.428      -0.00867308          149.55
0.525                  -0.316497        -134.729         -51.2951         103.119         -51.2953         103.118      -0.00874813         149.482
0.526                  -0.331007        -135.257         -51.0752         101.786         -51.0754         101.786      -0.00882527         149.415
0.527                  -0.346175        -135.788         -50.8553         100.431         -50.8554          100.43      -0.00890459         149.347
0.528                  -0.362028         -136.32         -50.6355         99.0516         -50.6356          99.051      -0.00898621          149.28
0.529                  -0.378593        -136.855         -50.4159         97.6487         -50.4161         97.6482      -0.00907024         149.212
0.53                   -0.395896        -137.393         -50.1968         96.2216         -50.1969         96.2211       -0.0091568         149.144
0.531                  -0.413965        -137.932         -49.9781           94.77         -49.9783         94.7695        -0.009246         149.076
0.532                  -0.432824        -138.473         -49.7601         93.2935         -49.7602         93.2931      -0.00933797         149.008
0.533                  -0.452498        -139.015         -49.5429         91.7919          -49.543         91.7915      -0.00943284          148.94
0.534                  -0.473011        -139.559         -49.3267          90.265         -49.3268         90.2647       -0.0095307         148.871
0.535                  -0.494384        -140.104         -49.1115         88.7127         -49.1116         88.7124       -0.0096317         148.803
0.536                  -0.516636        -140.649         -48.8977         87.1348         -48.8978         87.1345      -0.00973594         148.734
0.537                  -0.539784        -141.195         -48.6853         85.5313         -48.6854         85.5311      -0.00984354         148.666
0.538                  -0.563841        -141.742         -48.4746         83.9022         -48.4747          83.902       -0.0099546         148.597
0.539                  -0.588816        -142.287         -48.2658         82.2477         -48.2658         82.2475       -0.0100692         148.528
0.54                   -0.614715        -142.833          -48.059         80.5679          -48.059         80.5677       -0.0101875         148.459
0.541                  -0.641538        -143.377         -47.8544         78.8631         -47.8544         78.8629       -0.0103096          148.39
0.542                  -0.669279         -143.92         -47.6522         77.1336         -47.6522         77.1335       -0.0104354         148.321
0.543                  -0.697927         -144.46         -47.4527           75.38         -47.4527         75.3798       -0.0105652         148.252
0.544                  -0.727463        -144.999          -47.256         73.6027          -47.256         73.6025       -0.0106989         148.183
0.545                  -0.757863        -145.535         -47.0623         71.8024         -47.0623         71.8023       -0.0108365         148.113
0.546                  -0.789092        -146.067         -46.8719         69.9799         -46.8718         69.9798       -0.0109782         148.044
0.547                  -0.821108        -146.596         -46.6849         68.1361         -46.6848         68.1359       -0.0111238         147.974
0.548                  -0.853863        -147.121         -46.5015         66.2719         -46.5014         66.2717       -0.0112733         147.904
0.549                  -0.887298        -147.641         -46.3219         64.3884         -46.3218         64.3882       -0.0114268         147.835
0.55                   -0.921345        -148.156         -46.1463         62.4868         -46.1462         62.4866        -0.011584         147.765
0.551                  -0.955928        -148.666         -45.9748         60.5684         -45.9747         60.5681       -0.0117451         147.695
0.552                  -0.990964        -149.171         -45.8076         58.6346         -45.8075         58.6343       -0.0119097         147.625
0.553                   -1.02636        -149.669         -45.6448         56.6868         -45.6446         56.6865       -0.0120779         147.554
0.554                   -1.06202        -150.162         -45.4865         54.7267         -45.4863         54.7263       -0.0122494         147.484
0.555                   -1.09784        -150.648         -45.3328         52.7558         -45.3327         52.7554       -0.0124241         147.414
0.556                   -1.13372        -151.128         -45.1839         50.7758         -45.1837         50.7753       -0.0126017         147.343
0.557                   -1.16953        -151.602         -45.0397         48.7884         -45.0396         48.7879       -0.0127821         147.272
0.558                   -1.20516         -152.07         -44.9004         46.7955         -44.9002          46.795       -0.0129651         147.202
0.559                   -1.24051        -152.531         -44.7659         44.7988         -44.7657         44.7982       -0.0131504         147.131
0.56                    -1.27545        -152.987         -44.6362         42.8002         -44.6361         42.7995       -0.0133377          147.06
0.561                   -1.30989        -153.438         -44.5114         40.8013         -44.5112         40.8006       -0.0135269         146.989
0.562                   -1.34371        -153.884         -44.3913          38.804         -44.3912         38.8033       -0.0137177         146.918
0.563                   -1.37682        -154.325          -44.276         36.8101         -44.2759         36.8093       -0.0139097         146.847
0.564                   -1.40912        -154.763         -44.1653         34.8212         -44.1652         34.8204       -0.0141028         146.775
0.565                   -1.44055        -155.197         -44.0592         32.8389         -44.0591         32.8381       -0.0142968         146.704
0.566                   -1.47102        -155.629         -43.9575         30.8649         -43.9574         30.8641       -0.0144913         146.632
0.567                   -1.50049        -156.059         -43.8602         28.9007           -43.86         28.8998       -0.0146862         146.561
0.568                    -1.5289        -156.488         -43.7669         26.9475         -43.7668         26.9466       -0.0148813         146.489
0.569                   -1.55623        -156.917         -43.6777         25.0068         -43.6776         25.0059       -0.0150763         146.417
0.57                    -1.58245        -157.347         -43.5923         23.0798         -43.5921         23.0789       -0.0152712         146.345
0.571                   -1.60756        -157.778         -43.5105         21.1675         -43.5104         21.1666       -0.0154657         146.273
0.572                   -1.63155        -158.211         -43.4321         19.2709          -43.432           19.27       -0.0156598           146.2
0.573                   -1.65446        -158.648         -43.3571          17.391          -43.357         17.3901       -0.0158532         146.128
0.574                   -1.67629        -159.088          -43.285         15.5284          -43.285         15.5275        -0.016046         146.056
0.575                    -1.6971        -159.533         -43.2159          13.684         -43.2158         13.6831        -0.016238         145.983
0.576                   -1.71691        -159.983         -43.1494         11.8581         -43.1493         11.8572       -0.0164292          145.91
0.577                    -1.7358        -160.439         -43.0853         10.0513         -43.0852         10.0504       -0.0166196         145.837
0.578                   -1.75381        -160.902         -43.0234         8.26388         -43.0234         8.26307       -0.0168091         145.764
0.579                   -1.77102        -161.371         -42.9636         6.49618         -42.9636          6.4954       -0.0169978         145.691
0.58                    -1.78749        -161.849         -42.9057         4.74833         -42.9056         4.74758       -0.0171856         145.618
0.581                   -1.80329        -162.334         -42.8494         3.02041         -42.8493          3.0197       -0.0173727         145.544
0.582                    -1.8185        -162.828         -42.7945         1.31243         -42.7945         1.31175        -0.017559         145.471
0.583                    -1.8332         -163.33         -42.7409        -0.37568         -42.7409       -0.376316       -0.0177447         145.397
0.584                   -1.84746        -163.842         -42.6885        -2.04405         -42.6884        -2.04465       -0.0179297         145.323
0.585                   -1.86136        -164.363         -42.6369        -3.69289         -42.6369        -3.69344       -0.0181142         145.249
0.586                   -1.87498        -164.893         -42.5861        -5.32244         -42.5861        -5.32295       -0.0182982         145.175
0.587                    -1.8884        -165.433          -42.536        -6.93301          -42.536        -6.93348       -0.0184819           145.1
0.588                   -1.90168        -165.984         -42.4863        -8.52495         -42.4863        -8.52537       -0.0186653         145.026
0.589                    -1.9149        -166.544         -42.4369        -10.0986         -42.4369         -10.099       -0.0188486         144.951
0.59                    -1.92814        -167.115         -42.3877        -11.6545         -42.3877        -11.6548       -0.0190319         144.876
0.591                   -1.94146        -167.695         -42.3386         -13.193         -42.3386        -13.1933       -0.0192152         144.801
0.592                   -1.95492        -168.286         -42.2895        -14.7146         -42.2895        -14.7148       -0.0193988         144.725
0.593                    -1.9686        -168.888         -42.2402        -16.2198         -42.2402          -16.22       -0.0195826          144.65
0.594                   -1.98256          -169.5         -42.1906        -17.7091         -42.1906        -17.7092       -0.0197669         144.574
0.595                   -1.99684        -170.122         -42.1406        -19.1831         -42.1406        -19.1832       -0.0199517         144.499
0.596                   -2.01152        -170.754         -42.0902        -20.6422         -42.0902        -20.6423       -0.0201372         144.423
0.597                   -2.02665        -171.398         -42.0393        -22.0872         -42.0393        -22.0872       -0.0203234         144.346
0.598                   -2.04228        -172.051         -41.9878        -23.5184         -41.9878        -23.5184       -0.0205106          144.27
0.599                   -2.05846        -172.715         -41.9356        -24.9365         -41.9356        -24.9365       -0.0206987         144.193
0.6                     -2.07525        -173.389         -41.8826        -26.3421         -41.8826        -26.3421        -0.020888         144.117
0.601                   -2.09269        -174.074         -41.8288        -27.7357         -41.8288        -27.7356       -0.0210785          144.04
0.602                   -2.11084        -174.769         -41.7742        -29.1179         -41.7742        -29.1178       -0.0212703         143.962
0.603                   -2.12974        -175.474         -41.7186        -30.4893         -41.7186        -30.4892       -0.0214636         143.885
0.604                   -2.14944        -176.189         -41.6621        -31.8504         -41.6621        -31.8502       -0.0216585         143.807
0.605                   -2.16998        -176.915         -41.6047        -33.2018         -41.6046        -33.2016        -0.021855          143.73
0.606                   -2.19141        -177.652         -41.5461         -34.544         -41.5461        -34.5438       -0.0220532         143.652
0.607                   -2.21377        -178.398         -41.4865        -35.8776         -41.4865        -35.8774       -0.0222534         143.573
0.608                   -2.23711        -179.155         -41.4259        -37.2032         -41.4258        -37.2029       -0.0224555         143.495
0.609                   -2.26148        -179.922         -41.3641        -38.5212          -41.364        -38.5209       -0.0226596         143.416
0.61                    -2.28691           179.3         -41.3011        -39.8322         -41.3011         -39.832       -0.0228659         143.338
0.611                   -2.31347         178.513          -41.237        -41.1368          -41.237        -41.1365       -0.0230745         143.258
0.612                   -2.34118         177.715         -41.1718        -42.4354         -41.1718        -42.4351       -0.0232855         143.179
0.613                   -2.37011         176.906         -41.1054        -43.7286         -41.1054        -43.7283       -0.0234989           143.1
0.614                   -2.40029         176.087         -41.0378        -45.0168         -41.0378        -45.0165       -0.0237148          143.02
0.615                   -2.43177         175.258          -40.969        -46.3005          -40.969        -46.3002       -0.0239334          142.94
0.616                   -2.46462         174.419          -40.899        -47.5803          -40.899          -47.58       -0.0241547          142.86
0.617                   -2.49887         173.569         -40.8278        -48.8565         -40.8278        -48.8562       -0.0243789         142.779
0.618                   -2.53458         172.709         -40.7555        -50.1297         -40.7554        -50.1294        -0.024606         142.698
0.619                   -2.57181         171.838         -40.6819        -51.4003         -40.6819           -51.4        -0.024836         142.618
0.62                    -2.61061         170.957         -40.6072        -52.6688         -40.6072        -52.6685       -0.0250692         142.536
0.621                   -2.65104         170.065         -40.5313        -53.9356         -40.5313        -53.9353       -0.0253056         142.455
0.622                   -2.69315         169.163         -40.4543         -55.201         -40.4543        -55.2008       -0.0255453         142.373
0.623                   -2.73702          168.25         -40.3762        -56.4656         -40.3761        -56.4654       -0.0257884         142.291
0.624                    -2.7827         167.326         -40.2969        -57.7298         -40.2969        -57.7296        -0.026035         142.209
0.625                   -2.83027         166.392         -40.2165        -58.9939         -40.2165        -58.9937       -0.0262852         142.127
0.626                   -2.87979         165.448         -40.1351        -60.2584         -40.1351        -60.2581        -0.026539         142.044
0.627                   -2.93132         164.493         -40.0526        -61.5235         -40.0526        -61.5233       -0.0267967         141.961
0.628                   -2.98496         163.527         -39.9691        -62.7898          -39.969        -62.7895       -0.0270582         141.878
0.629                   -3.04077          162.55         -39.8845        -64.0574         -39.8845        -64.0572       -0.0273237         141.794
0.63                    -3.09883         161.563          -39.799        -65.3269          -39.799        -65.3267       -0.0275933          141.71
0.631                   -3.15924         160.566         -39.7126        -66.5985         -39.7126        -66.5983       -0.0278671         141.626
0.632                   -3.22206         159.557         -39.6252        -67.8726         -39.6253        -67.8724       -0.0281452         141.542
0.633                   -3.28741         158.538          -39.537        -69.1495          -39.537        -69.1493       -0.0284278         141.457
0.634                   -3.35536         157.509          -39.448        -70.4294          -39.448        -70.4292       -0.0287149         141.372
0.635                   -3.42601         156.469         -39.3581        -71.7127         -39.3581        -71.7125       -0.0290066         141.287
0.636                   -3.49948         155.419         -39.2675        -72.9997         -39.2675        -72.9995       -0.0293032         141.201
0.637                   -3.57585         154.358         -39.1762        -74.2906         -39.1762        -74.2904       -0.0296046         141.115
0.638                   -3.65525         153.287         -39.0842        -75.5857         -39.0842        -75.5855        -0.029911         141.029
0.639                   -3.73778         152.206         -38.9916        -76.8852         -38.9916         -76.885       -0.0302226         140.943
0.64                    -3.82357         151.115         -38.8983        -78.1894         -38.8984        -78.1891       -0.0305395         140.856
0.641                   -3.91273         150.014         -38.8046        -79.4984         -38.8046        -79.4981       -0.0308618         140.769
0.642                    -4.0054         148.904         -38.7104        -80.8125         -38.7104        -80.8122       -0.0311897         140.681
0.643                    -4.1017         147.784         -38.6157        -82.1318         -38.6157        -82.1315       -0.0315233         140.593
0.644                   -4.20178         146.655         -38.5206        -83.4565         -38.5207        -83.4562       -0.0318627         140.505
0.645                   -4.30578         145.516         -38.4253        -84.7868         -38.4253        -84.7865       -0.0322081         140.417
0.646                   -4.41384         144.369         -38.3296        -86.1227         -38.3297        -86.1224       -0.0325597         140.328
0.647                   -4.52613         143.214         -38.2338        -87.4645         -38.2338        -87.4641       -0.0329177         140.239
0.648                   -4.64279          142.05         -38.1377        -88.8121         -38.1378        -88.8117       -0.0332821         140.149
0.649                   -4.76401         140.879         -38.0416        -90.1657         -38.0416        -90.1653       -0.0336531         140.059
0.65                    -4.88995           139.7         -37.9454        -91.5252         -37.9455        -91.5248       -0.0340311         139.969
0.651                    -5.0208         138.515         -37.8493        -92.8908         -37.8493        -92.8904        -0.034416         139.879
0.652                   -5.15674         137.323         -37.7532        -94.2625         -37.7532         -94.262       -0.0348081         139.788
0.653                   -5.29796         136.126         -37.6572        -95.6402         -37.6572        -95.6397       -0.0352076         139.696
0.654                   -5.44468         134.924         -37.5614        -97.0238         -37.5615        -97.0233       -0.0356147         139.605
0.655                   -5.59711         133.717         -37.4659        -98.4134          -37.466        -98.4129       -0.0360295         139.513
0.656                   -5.75546         132.506         -37.3707        -99.8089         -37.3707        -99.8083       -0.0364524          139.42
0.657                   -5.91997         131.293         -37.2759         -101.21         -37.2759         -101.21       -0.0368834         139.327
0.658                   -6.09088         130.078         -37.1814        -102.617         -37.1815        -102.616       -0.0373228         139.234
0.659                   -6.26844         128.862         -37.0875        -104.029         -37.0875        -104.029       -0.0377708          139.14
0.66                    -6.45291         127.646         -36.9941        -105.447         -36.9941        -105.446       -0.0382277         139.046
0.661                   -6.64458         126.431         -36.9013        -106.869         -36.9013        -106.869       -0.0386936         138.951
0.662                   -6.84372         125.219         -36.8091        -108.297         -36.8091        -108.296       -0.0391688         138.856
0.663                   -7.05065         124.011         -36.7177        -109.729         -36.7177        -109.728       -0.0396535         138.761
0.664                   -7.26568         122.808         -36.6269        -111.166         -36.6269        -111.165        -0.040148         138.665
0.665                   -7.48914         121.613          -36.537        -112.606          -36.537        -112.605       -0.0406525         138.569
0.666                    -7.7214         120.427         -36.4479         -114.05         -36.4479         -114.05       -0.0411672         138.472
0.667                   -7.96282         119.251         -36.3597        -115.498         -36.3597        -115.497       -0.0416924         138.375
0.668                    -8.2138          118.09         -36.2724        -116.949         -36.2724        -116.948       -0.0422284         138.277
0.669                   -8.47475         116.943          -36.186        -118.402          -36.186        -118.402       -0.0427753         138.179
0.67                    -8.74611         115.816         -36.1006        -119.858         -36.1006        -119.858       -0.0433335          138.08
0.671                   -9.02836          114.71         -36.0163        -121.316         -36.0162        -121.315       -0.0439032         137.981
0.672                     -9.322          113.63         -35.9329        -122.775         -35.9329        -122.775       -0.0444847         137.882
0.673                   -9.62755         112.578         -35.8506        -124.236         -35.8506        -124.235       -0.0450782         137.782
0.674                   -9.94557         111.559         -35.7694        -125.697         -35.7693        -125.696        -0.045684         137.681
0.675                   -10.2767         110.579         -35.6892        -127.158         -35.6892        -127.157       -0.0463024          137.58
0.676                   -10.6215         109.641         -35.6101        -128.619         -35.6101        -128.618       -0.0469337         137.478
0.677                   -10.9807         108.754         -35.5322        -130.079         -35.5321        -130.079       -0.0475781         137.376
0.678                    -11.355         107.923         -35.4553        -131.538         -35.4552        -131.538       -0.0482359         137.273
0.679                   -11.7452         107.158         -35.3794        -132.996         -35.3794        -132.995       -0.0489073          137.17
0.68                     -12.152         106.467         -35.3047        -134.451         -35.3046        -134.451       -0.0495927         137.066
0.681                   -12.5764         105.861          -35.231        -135.904         -35.2309        -135.904       -0.0502924         136.962
0.682                    -13.019         105.353         -35.1583        -137.354         -35.1582        -137.354       -0.0510067         136.857
0.683                   -13.4808         104.958         -35.0866        -138.801         -35.0865        -138.801       -0.0517358         136.751
0.684                   -13.9626         104.694         -35.0159        -140.244         -35.0158        -140.244         -0.05248         136.645
0.685                    -14.465         104.581         -34.9462        -141.683         -34.9461        -141.683       -0.0532397         136.538
0.686                   -14.9887         104.643         -34.8773        -143.117         -34.8773        -143.117       -0.0540151         136.431
0.687                   -15.5339          104.91         -34.8094        -144.546         -34.8093        -144.546       -0.0548067         136.323
0.688                   -16.1004         105.416         -34.7422         -145.97         -34.7422         -145.97       -0.0556146         136.214
0.689                   -16.6875           106.2         -34.6759        -147.388         -34.6758        -147.388       -0.0564393         136.105
0.69                    -17.2933         107.311         -34.6103          -148.8         -34.6102          -148.8        -0.057281         135.995
0.691                   -17.9143         108.802         -34.5453        -150.205         -34.5453        -150.205       -0.0581402         135.885
0.692                    -18.545         110.733          -34.481        -151.604         -34.4809        -151.605       -0.0590172         135.773
0.693                   -19.1767          113.17         -34.4172        -152.996         -34.4172        -152.997       -0.0599124         135.662
0.694                   -19.7966         116.175          -34.354        -154.381         -34.3539        -154.382       -0.0608261         135.549
0.695                   -20.3873         119.797         -34.2912        -155.759         -34.2911        -155.759       -0.0617587         135.436
0.696                   -20.9259         124.062         -34.2287        -157.129         -34.2287        -157.129       -0.0627107         135.322
0.697                   -21.3856         128.942         -34.1666        -158.491         -34.1666        -158.491       -0.0636824         135.207