! TOUCHSTONE file generated by CST MICROWAVE STUDIO
! Date and time: Mon Oct 26 12:31:51 2020
! Project name: Scenario_1_Circular_Tissue_out_of_Line.cst
! Parameters = {dy1=18.161; L_HA=400; MT=2.54; Rad_Dielectric=30; Rad_Lower=7.3; Rad_Upper=30; a_HA=580; a_WG=246; b_HA=500; b_WG=121; c_HA=0; c_WG=187; d_feed=85; dx1=866; h_feed=15; h_lower=18; h_upper=40}
! Header version: 2018
! Port assignment regex: !\s*Touchstone port\s*([0-9]+)\s*=\s*(CST MWS port|CST DS port)\s*([0-9]+|Zmin|Zmax)\s*\(\"(.*)\"\)(\s*mode\s*([0-9]+))?.*
! Touchstone port assignment:
! Touchstone port 1 = CST MWS port 1 ("")
! Touchstone port 2 = CST MWS port 2 ("")
# GHz S DB R 50
0.5                    -0.142343        -122.392         -62.5967         99.4176         -62.5967         99.4199      -0.00744832         151.123
0.501                  -0.148429        -122.806         -62.4948         96.9703         -62.4947         96.9729      -0.00752122         151.058
0.502                   -0.15465        -123.222         -62.3883         94.5217         -62.3883         94.5245      -0.00759483         150.992
0.503                  -0.161011        -123.641         -62.2775         92.0729         -62.2774         92.0759      -0.00766917         150.927
0.504                  -0.167517        -124.063         -62.1624         89.6249         -62.1623         89.6281      -0.00774423         150.862
0.505                  -0.174172        -124.488         -62.0432         87.1787         -62.0432          87.182      -0.00782003         150.796
0.506                  -0.180981        -124.916         -61.9201         84.7352           -61.92         84.7387      -0.00789656          150.73
0.507                  -0.187948        -125.346         -61.7932         82.2953         -61.7931         82.2989      -0.00797383         150.665
0.508                  -0.195078        -125.779         -61.6627         79.8597         -61.6626         79.8634      -0.00805185         150.599
0.509                  -0.202377        -126.215         -61.5287          77.429         -61.5287         77.4329      -0.00813062         150.533
0.51                    -0.20985        -126.653         -61.3916         75.0039         -61.3916         75.0078      -0.00821014         150.467
0.511                  -0.217501        -127.094         -61.2514         72.5848         -61.2514         72.5888      -0.00829043         150.401
0.512                  -0.225336        -127.539         -61.1083         70.1721         -61.1083         70.1762      -0.00837147         150.335
0.513                  -0.233359        -127.986         -60.9626         67.7663         -60.9626         67.7705      -0.00845329         150.269
0.514                  -0.241577        -128.436         -60.8143         65.3676         -60.8144         65.3718      -0.00853588         150.202
0.515                  -0.249995        -128.888         -60.6638         62.9762         -60.6639         62.9804      -0.00861924         150.136
0.516                  -0.258619        -129.344         -60.5112         60.5922         -60.5113         60.5964      -0.00870339          150.07
0.517                  -0.267454        -129.802         -60.3567         58.2157         -60.3567         58.2199      -0.00878832         150.003
0.518                  -0.276505        -130.264         -60.2004         55.8468         -60.2005         55.8509      -0.00887405         149.937
0.519                  -0.285779        -130.728         -60.0426         53.4854         -60.0426         53.4894      -0.00896057          149.87
0.52                   -0.295281        -131.195         -59.8833         51.1313         -59.8834         51.1353      -0.00904789         149.803
0.521                  -0.305018        -131.666         -59.7229         48.7846          -59.723         48.7885      -0.00913601         149.736
0.522                  -0.314996        -132.139         -59.5614         46.4451         -59.5615         46.4489      -0.00922494          149.67
0.523                   -0.32522        -132.615         -59.3991         44.1124         -59.3992         44.1161      -0.00931468         149.603
0.524                  -0.335697        -133.094         -59.2359         41.7865         -59.2361         41.7901      -0.00940523         149.535
0.525                  -0.346433        -133.576         -59.0723         39.4671         -59.0724         39.4706       -0.0094966         149.468
0.526                  -0.357435        -134.061         -58.9081         37.1539         -58.9083         37.1572      -0.00958878         149.401
0.527                  -0.368709        -134.549         -58.7437         34.8465         -58.7439         34.8497      -0.00968179         149.334
0.528                  -0.380262         -135.04         -58.5791         32.5448         -58.5793         32.5478      -0.00977562         149.266
0.529                  -0.392099        -135.533         -58.4144         30.2484         -58.4146         30.2512      -0.00987028         149.199
0.53                   -0.404229         -136.03         -58.2499         27.9569         -58.2501         27.9596      -0.00996576         149.131
0.531                  -0.416657         -136.53         -58.0855         25.6701         -58.0857         25.6726       -0.0100621         149.063
0.532                  -0.429391        -137.033         -57.9215         23.3876         -57.9217           23.39       -0.0101592         148.995
0.533                  -0.442438        -137.539         -57.7579         21.1091         -57.7581         21.1113       -0.0102572         148.928
0.534                  -0.455803        -138.048         -57.5948         18.8343          -57.595         18.8363       -0.0103559          148.86
0.535                  -0.469495         -138.56         -57.4323         16.5629         -57.4325         16.5646       -0.0104555         148.791
0.536                  -0.483521        -139.075         -57.2705         14.2944         -57.2707          14.296       -0.0105559         148.723
0.537                  -0.497888        -139.593         -57.1095         12.0288         -57.1097         12.0301       -0.0106571         148.655
0.538                  -0.512602        -140.114         -56.9494         9.76555         -56.9496          9.7667       -0.0107592         148.587
0.539                  -0.527672        -140.638         -56.7902         7.50452         -56.7905         7.50546        -0.010862         148.518
0.54                   -0.543104        -141.165         -56.6321          5.2454         -56.6324         5.24614       -0.0109656          148.45
0.541                  -0.558907        -141.695         -56.4751         2.98794         -56.4753         2.98847       -0.0110699         148.381
0.542                  -0.575087        -142.228         -56.3192        0.731898         -56.3195        0.732228        -0.011175         148.312
0.543                  -0.591652        -142.764         -56.1646        -1.52294         -56.1648        -1.52281       -0.0112809         148.243
0.544                  -0.608609        -143.303         -56.0112        -3.77679         -56.0115        -3.77686       -0.0113875         148.174
0.545                  -0.625967        -143.845         -55.8592        -6.02983         -55.8595        -6.03011       -0.0114947         148.105
0.546                  -0.643732         -144.39         -55.7085        -8.28226         -55.7088        -8.28273       -0.0116027         148.036
0.547                  -0.661912        -144.938         -55.5593        -10.5342         -55.5596        -10.5349       -0.0117113         147.967
0.548                  -0.680516        -145.488         -55.4115        -12.7859         -55.4118        -12.7867       -0.0118205         147.897
0.549                  -0.699551        -146.042         -55.2653        -15.0373         -55.2655        -15.0384       -0.0119304         147.828
0.55                   -0.719024        -146.599         -55.1206        -17.2887         -55.1208        -17.2899       -0.0120407         147.758
0.551                  -0.738943        -147.159         -54.9774        -19.5401         -54.9777        -19.5415       -0.0121516         147.688
0.552                  -0.759316        -147.722         -54.8358        -21.7916         -54.8361        -21.7932        -0.012263         147.618
0.553                  -0.780151        -148.287         -54.6958        -24.0433         -54.6961        -24.0451       -0.0123747         147.548
0.554                  -0.801456        -148.856         -54.5575        -26.2953         -54.5578        -26.2972       -0.0124869         147.478
0.555                  -0.823238        -149.427         -54.4208        -28.5475         -54.4211        -28.5496       -0.0125994         147.408
0.556                  -0.845505        -150.001         -54.2858           -30.8         -54.2861        -30.8023       -0.0127121         147.338
0.557                  -0.868265        -150.578         -54.1524        -33.0529         -54.1527        -33.0553       -0.0128251         147.267
0.558                  -0.891526        -151.158         -54.0207        -35.3061          -54.021        -35.3086       -0.0129382         147.197
0.559                  -0.915295        -151.741         -53.8907        -37.5597          -53.891        -37.5623       -0.0130515         147.126
0.56                    -0.93958        -152.326         -53.7623        -39.8136         -53.7626        -39.8163       -0.0131648         147.055
0.561                  -0.964389        -152.915         -53.6357        -42.0678         -53.6359        -42.0707       -0.0132782         146.984
0.562                   -0.98973        -153.506         -53.5106        -44.3224         -53.5109        -44.3253       -0.0133915         146.913
0.563                   -1.01561        -154.099         -53.3873        -46.5772         -53.3876        -46.5802       -0.0135049         146.842
0.564                   -1.04204        -154.696         -53.2656        -48.8322         -53.2658        -48.8353       -0.0136182         146.771
0.565                   -1.06902        -155.295         -53.1455        -51.0874         -53.1457        -51.0906       -0.0137315         146.699
0.566                   -1.09656        -155.897          -53.027        -53.3428         -53.0273        -53.3461       -0.0138449         146.628
0.567                   -1.12467        -156.501         -52.9101        -55.5983         -52.9104        -55.6016       -0.0139584         146.556
0.568                   -1.15336        -157.108         -52.7948        -57.8539          -52.795        -57.8572       -0.0140721         146.484
0.569                   -1.18263        -157.718          -52.681        -60.1095         -52.6813        -60.1129       -0.0141861         146.412
0.57                     -1.2125         -158.33         -52.5687         -62.365          -52.569        -62.3684       -0.0143007          146.34
0.571                   -1.24296        -158.945         -52.4579        -64.6204         -52.4582        -64.6239       -0.0144161         146.268
0.572                   -1.27403        -159.562         -52.3486        -66.8757         -52.3489        -66.8792       -0.0145324         146.195
0.573                   -1.30571        -160.181         -52.2407        -69.1309          -52.241        -69.1343         -0.01465         146.123
0.574                   -1.33801        -160.803         -52.1342        -71.3858         -52.1345        -71.3892       -0.0147692          146.05
0.575                   -1.37093        -161.428          -52.029        -73.6404         -52.0293        -73.6438       -0.0148903         145.977
0.576                   -1.40449        -162.055         -51.9252        -75.8947         -51.9255        -75.8981       -0.0150136         145.904
0.577                   -1.43869        -162.684         -51.8226        -78.1487         -51.8229         -78.152       -0.0151394          145.83
0.578                   -1.47354        -163.316         -51.7213        -80.4023         -51.7216        -80.4056       -0.0152681         145.757
0.579                   -1.50903        -163.949         -51.6212        -82.6555         -51.6215        -82.6587          -0.0154         145.683
0.58                    -1.54519        -164.585         -51.5223        -84.9083         -51.5225        -84.9115       -0.0155353          145.61
0.581                   -1.58202        -165.224         -51.4244        -87.1606         -51.4247        -87.1637       -0.0156743         145.536
0.582                   -1.61951        -165.864         -51.3277        -89.4125         -51.3279        -89.4155        -0.015817         145.462
0.583                   -1.65768        -166.507          -51.232        -91.6639         -51.2322        -91.6669       -0.0159637         145.387
0.584                   -1.69654        -167.151         -51.1372        -93.9149         -51.1374        -93.9178       -0.0161144         145.313
0.585                   -1.73609        -167.798         -51.0435        -96.1654         -51.0437        -96.1682       -0.0162691         145.238
0.586                   -1.77633        -168.447         -50.9506        -98.4155         -50.9508        -98.4181       -0.0164277         145.164
0.587                   -1.81727        -169.098         -50.8586        -100.665         -50.8588        -100.668       -0.0165904         145.089
0.588                   -1.85892         -169.75         -50.7674        -102.914         -50.7676        -102.917       -0.0167569         145.014
0.589                   -1.90128        -170.405          -50.677        -105.163         -50.6772        -105.165       -0.0169272         144.938
0.59                    -1.94436        -171.062         -50.5874        -107.412         -50.5875        -107.414       -0.0171011         144.863
0.591                   -1.98816         -171.72         -50.4984         -109.66         -50.4986        -109.662       -0.0172786         144.788
0.592                   -2.03268        -172.381         -50.4101        -111.908         -50.4103         -111.91       -0.0174595         144.712
0.593                   -2.07794        -173.043         -50.3224        -114.155         -50.3226        -114.157       -0.0176436         144.636
0.594                   -2.12394        -173.707         -50.2354        -116.403         -50.2355        -116.404       -0.0178309          144.56
0.595                   -2.17068        -174.373         -50.1488         -118.65         -50.1489        -118.652       -0.0180212         144.484
0.596                   -2.21816         -175.04         -50.0628        -120.897         -50.0629        -120.899       -0.0182145         144.407
0.597                    -2.2664        -175.709         -49.9772        -123.145         -49.9773        -123.146       -0.0184107         144.331
0.598                   -2.31539         -176.38         -49.8921        -125.392         -49.8922        -125.393       -0.0186096         144.254
0.599                   -2.36515        -177.053         -49.8074        -127.639         -49.8075         -127.64       -0.0188112         144.177
0.6                     -2.41567        -177.727         -49.7231        -129.887         -49.7231        -129.887       -0.0190154           144.1
0.601                   -2.46696        -178.403         -49.6391        -132.135         -49.6391        -132.135       -0.0192223         144.023
0.602                   -2.51902         -179.08         -49.5554        -134.383         -49.5555        -134.383       -0.0194318         143.945
0.603                   -2.57186        -179.759         -49.4721        -136.631         -49.4721        -136.631       -0.0196438         143.867
0.604                   -2.62548         179.561          -49.389         -138.88          -49.389         -138.88       -0.0198584         143.789
0.605                    -2.6799         178.879         -49.3061        -141.129         -49.3061        -141.129       -0.0200755         143.711
0.606                    -2.7351         178.195         -49.2235        -143.379         -49.2235        -143.379       -0.0202952         143.633
0.607                    -2.7911          177.51         -49.1411         -145.63          -49.141        -145.629       -0.0205175         143.555
0.608                    -2.8479         176.824         -49.0588        -147.881         -49.0588         -147.88       -0.0207423         143.476
0.609                   -2.90551         176.136         -48.9768        -150.133         -48.9767        -150.132       -0.0209698         143.397
0.61                    -2.96393         175.447         -48.8949        -152.386         -48.8948        -152.385       -0.0211999         143.318
0.611                   -3.02316         174.756         -48.8131         -154.64          -48.813        -154.639       -0.0214328         143.239
0.612                   -3.08322         174.063         -48.7315        -156.895         -48.7314        -156.894       -0.0216683         143.159
0.613                    -3.1441         173.369           -48.65        -159.151         -48.6498        -159.149       -0.0219066         143.079
0.614                   -3.20581         172.674         -48.5686        -161.408         -48.5684        -161.406       -0.0221478             143
0.615                   -3.26836         171.977         -48.4873        -163.666         -48.4871        -163.664       -0.0223918         142.919
0.616                   -3.33176         171.279         -48.4061        -165.926         -48.4059        -165.923       -0.0226387         142.839
0.617                   -3.39601         170.579         -48.3251        -168.186         -48.3249        -168.184       -0.0228887         142.758
0.618                   -3.46112         169.877         -48.2441        -170.448         -48.2439        -170.445       -0.0231416         142.677
0.619                    -3.5271         169.174         -48.1632        -172.711          -48.163        -172.708       -0.0233977         142.596
0.62                    -3.59395         168.469         -48.0825        -174.975         -48.0822        -174.972        -0.023657         142.515
0.621                   -3.66168         167.763         -48.0018        -177.241         -48.0015        -177.237       -0.0239195         142.433
0.622                   -3.73031         167.055         -47.9213        -179.508          -47.921        -179.504       -0.0241853         142.352
0.623                   -3.79984         166.345         -47.8408         178.224         -47.8406         178.228       -0.0244544          142.27
0.624                   -3.87029         165.634         -47.7606         175.955         -47.7602         175.958       -0.0247271         142.187
0.625                   -3.94166          164.92         -47.6804         173.684         -47.6801         173.688       -0.0250032         142.105
0.626                   -4.01398         164.205         -47.6004         171.412         -47.6001         171.416        -0.025283         142.022
0.627                   -4.08724         163.488         -47.5206         169.139         -47.5202         169.143       -0.0255664         141.939
0.628                   -4.16148         162.768         -47.4409         166.864         -47.4405         166.868       -0.0258536         141.855
0.629                   -4.23671         162.047         -47.3614         164.589          -47.361         164.593       -0.0261447         141.772
0.63                    -4.31294         161.323         -47.2821         162.312         -47.2817         162.317       -0.0264396         141.688
0.631                    -4.3902         160.597         -47.2031         160.035         -47.2027         160.039       -0.0267386         141.604
0.632                   -4.46851         159.869         -47.1242         157.756         -47.1238         157.761       -0.0270417         141.519
0.633                   -4.54789         159.138         -47.0456         155.477         -47.0452         155.481        -0.027349         141.435
0.634                   -4.62837         158.405         -46.9673         153.197         -46.9669         153.201       -0.0276606          141.35
0.635                   -4.70997         157.669         -46.8893         150.916         -46.8889         150.921       -0.0279766         141.264
0.636                   -4.79273          156.93         -46.8116         148.635         -46.8112          148.64       -0.0282971         141.179
0.637                   -4.87669         156.188         -46.7342         146.353         -46.7337         146.358       -0.0286221         141.093
0.638                   -4.96187         155.443         -46.6571         144.072         -46.6567         144.076       -0.0289518         141.007
0.639                   -5.04833         154.695         -46.5804          141.79         -46.5799         141.794       -0.0292863          140.92
0.64                     -5.1361         153.943          -46.504         139.508         -46.5036         139.513       -0.0296258         140.833
0.641                   -5.22523         153.188         -46.4281         137.226         -46.4276         137.231       -0.0299702         140.746
0.642                   -5.31578          152.43         -46.3525         134.945         -46.3521          134.95       -0.0303197         140.659
0.643                   -5.40781         151.667         -46.2774         132.664         -46.2769         132.669       -0.0306745         140.571
0.644                   -5.50138         150.901         -46.2027         130.385         -46.2022         130.389       -0.0310346         140.483
0.645                   -5.59656          150.13         -46.1284         128.106          -46.128          128.11       -0.0314002         140.394
0.646                   -5.69342         149.355         -46.0546         125.828         -46.0542         125.832       -0.0317713         140.306
0.647                   -5.79206         148.576         -45.9813         123.552         -45.9809         123.556       -0.0321483         140.217
0.648                   -5.89255         147.793         -45.9085         121.277         -45.9081         121.281        -0.032531         140.127
0.649                   -5.99501         147.004         -45.8362         119.004         -45.8358         119.008       -0.0329198         140.037
0.65                    -6.09954         146.211         -45.7643         116.733         -45.7639         116.737       -0.0333146         139.947
0.651                   -6.20625         145.413          -45.693         114.464         -45.6926         114.468       -0.0337157         139.857
0.652                   -6.31528          144.61         -45.6222         112.198         -45.6218         112.202       -0.0341233         139.766
0.653                   -6.42678         143.802         -45.5519         109.935         -45.5516         109.939       -0.0345374         139.675
0.654                   -6.54089         142.989         -45.4822         107.674         -45.4818         107.678       -0.0349582         139.583
0.655                   -6.65778         142.172         -45.4129         105.417         -45.4126         105.421       -0.0353858         139.491
0.656                   -6.77763         141.349         -45.3442         103.164         -45.3439         103.167       -0.0358205         139.399
0.657                   -6.90064         140.522          -45.276         100.914         -45.2757         100.917       -0.0362624         139.306
0.658                   -7.02702          139.69         -45.2083         98.6676          -45.208          98.671       -0.0367116         139.213
0.659                   -7.15701         138.855         -45.1411         96.4258         -45.1408         96.4292       -0.0371683         139.119
0.66                    -7.29084         138.016         -45.0744         94.1885         -45.0741         94.1917       -0.0376328         139.025
0.661                   -7.42879         137.174         -45.0082         91.9558         -45.0079          91.959       -0.0381051         138.931
0.662                   -7.57113         136.331         -44.9425         89.7281         -44.9422         89.7312       -0.0385855         138.836
0.663                   -7.71817         135.486         -44.8772         87.5055         -44.8769         87.5085       -0.0390741          138.74
0.664                   -7.87021         134.642         -44.8123         85.2883         -44.8121         85.2912       -0.0395713         138.645
0.665                    -8.0276           133.8         -44.7479         83.0767         -44.7477         83.0794       -0.0400771         138.549
0.666                   -8.19067         132.962         -44.6838         80.8709         -44.6837         80.8735       -0.0405917         138.452
0.667                   -8.35977          132.13         -44.6202         78.6711           -44.62         78.6736       -0.0411155         138.355
0.668                   -8.53526         131.306         -44.5568         76.4774         -44.5567         76.4799       -0.0416486         138.257
0.669                   -8.71749         130.494         -44.4939         74.2902         -44.4938         74.2925       -0.0421912         138.159
0.67                    -8.90679         129.698         -44.4312         72.1095         -44.4311         72.1118       -0.0427435         138.061
0.671                   -9.10347         128.921         -44.3687         69.9356         -44.3687         69.9377       -0.0433059         137.962
0.672                   -9.30782         128.169         -44.3065         67.7685         -44.3065         67.7705       -0.0438785         137.862
0.673                   -9.52004         127.447         -44.2446         65.6084         -44.2445         65.6104       -0.0444617         137.762
0.674                    -9.7403         126.761         -44.1827         63.4555         -44.1827         63.4574       -0.0450556         137.662
0.675                   -9.96863         126.117          -44.121         61.3099         -44.1211         61.3117       -0.0456605         137.561
0.676                    -10.205         125.524         -44.0595         59.1717         -44.0595         59.1734       -0.0462768          137.46
0.677                   -10.4491         124.988         -43.9979          57.041          -43.998         57.0426       -0.0469046         137.358
0.678                   -10.7005         124.519         -43.9364         54.9178         -43.9365         54.9193       -0.0475443         137.255
0.679                   -10.9587         124.124         -43.8749         52.8022          -43.875         52.8037       -0.0481963         137.152
0.68                    -11.2228         123.813         -43.8133         50.6944         -43.8134         50.6958       -0.0488607         137.048
0.681                   -11.4915         123.595         -43.7516         48.5943         -43.7518         48.5956       -0.0495379         136.944
0.682                   -11.7637         123.476         -43.6898          46.502           -43.69         46.5033       -0.0502283         136.839
0.683                   -12.0374         123.464         -43.6277         44.4174          -43.628         44.4186       -0.0509321         136.734
0.684                   -12.3108         123.563         -43.5655         42.3407         -43.5657         42.3418       -0.0516498         136.628
0.685                   -12.5816         123.777          -43.503         40.2717         -43.5032         40.2728       -0.0523816         136.521
0.686                   -12.8475         124.106         -43.4401         38.2104         -43.4404         38.2115        -0.053128         136.414
0.687                    -13.106         124.549         -43.3769         36.1569         -43.3773          36.158       -0.0538893         136.306
0.688                   -13.3547         125.099         -43.3134         34.1111         -43.3137         34.1121       -0.0546659         136.197
0.689                   -13.5911         125.747         -43.2493         32.0728         -43.2497         32.0739       -0.0554583         136.088
0.69                    -13.8132         126.483         -43.1848         30.0421         -43.1852         30.0431       -0.0562667         135.978
0.691                   -14.0192         127.291         -43.1198         28.0189         -43.1202         28.0198       -0.0570917         135.868
0.692                   -14.2079         128.154         -43.0541          26.003         -43.0545         26.0039       -0.0579337         135.757
0.693                   -14.3786         129.055         -42.9879         23.9943         -42.9883         23.9953       -0.0587931         135.645
0.694                    -14.531         129.976          -42.921         21.9927         -42.9214         21.9937       -0.0596704         135.532
0.695                   -14.6654         130.898         -42.8534         19.9982         -42.8539         19.9991       -0.0605661         135.419
0.696                   -14.7828         131.807         -42.7851         18.0105         -42.7855         18.0114       -0.0614806         135.305
0.697                   -14.8844         132.686         -42.7159         16.0294         -42.7164         16.0304       -0.0624145          135.19