! TOUCHSTONE file generated by CST MICROWAVE STUDIO
! Date and time: Mon Oct 26 12:07:54 2020
! Project name: Scenario_1_Circular_Tissue_out_of_Line_v2.cst
! Parameters = {dy1=34.6; L_HA=400; MT=2.54; Rad_Dielectric=30; Rad_Lower=7.3; Rad_Upper=30; a_HA=580; a_WG=246; b_HA=500; b_WG=121; c_HA=0; c_WG=187; d_feed=85; dx1=173; h_feed=15; h_lower=18; h_upper=40}
! Header version: 2018
! Port assignment regex: !\s*Touchstone port\s*([0-9]+)\s*=\s*(CST MWS port|CST DS port)\s*([0-9]+|Zmin|Zmax)\s*\(\"(.*)\"\)(\s*mode\s*([0-9]+))?.*
! Touchstone port assignment:
! Touchstone port 1 = CST MWS port 1 ("")
! Touchstone port 2 = CST MWS port 2 ("")
# GHz S DB R 50
0.5                    -0.102328         -122.52          -56.667         129.895          -56.667         129.895       -0.0072523         151.126
0.501                  -0.105241         -123.03         -56.4631         129.039         -56.4631         129.039      -0.00728586         151.061
0.502                  -0.108748         -123.54         -56.2582         128.168         -56.2582         128.167      -0.00732138         150.995
0.503                  -0.112852        -124.052         -56.0521          127.28         -56.0521         127.279      -0.00735885          150.93
0.504                  -0.117554        -124.565          -55.845         126.376          -55.845         126.375       -0.0073983         150.864
0.505                  -0.122856         -125.08         -55.6368         125.456         -55.6368         125.455      -0.00743973         150.798
0.506                  -0.128758        -125.595         -55.4276         124.518         -55.4275         124.517      -0.00748316         150.732
0.507                   -0.13526        -126.111         -55.2173         123.564         -55.2173         123.563      -0.00752859         150.666
0.508                  -0.142362        -126.628         -55.0062         122.592         -55.0061         122.591      -0.00757604           150.6
0.509                  -0.150064        -127.146          -54.794         121.602          -54.794         121.601      -0.00762552         150.534
0.51                   -0.158363        -127.664          -54.581         120.594          -54.581         120.593      -0.00767704         150.468
0.511                  -0.167259        -128.183         -54.3671         119.568         -54.3671         119.566      -0.00773062         150.402
0.512                  -0.176748        -128.703         -54.1524         118.523         -54.1523         118.521      -0.00778625         150.335
0.513                  -0.186828        -129.223         -53.9369         117.458         -53.9368         117.456      -0.00784396         150.269
0.514                  -0.197496        -129.743         -53.7206         116.374         -53.7206         116.372      -0.00790376         150.202
0.515                  -0.208748        -130.264         -53.5037          115.27         -53.5037         115.268      -0.00796566         150.136
0.516                  -0.220579        -130.784         -53.2861         114.146         -53.2861         114.144      -0.00802966         150.069
0.517                  -0.232984        -131.305          -53.068         113.001          -53.068         112.999      -0.00809579         150.002
0.518                  -0.245958        -131.826         -52.8493         111.835         -52.8493         111.833      -0.00816406         149.936
0.519                  -0.259495        -132.347         -52.6302         110.648         -52.6302         110.646      -0.00823447         149.869
0.52                   -0.273588        -132.868         -52.4108         109.439         -52.4108         109.437      -0.00830704         149.802
0.521                   -0.28823        -133.388          -52.191         108.208         -52.1911         108.206      -0.00838177         149.735
0.522                  -0.303414        -133.909         -51.9711         106.954         -51.9711         106.952      -0.00845869         149.667
0.523                  -0.319131        -134.429          -51.751         105.678         -51.7511         105.676       -0.0085378           149.6
0.524                  -0.335373        -134.948         -51.5309         104.378          -51.531         104.376      -0.00861911         149.533
0.525                   -0.35213        -135.467         -51.3109         103.055          -51.311         103.053      -0.00870264         149.465
0.526                  -0.369393        -135.986         -51.0911         101.708         -51.0911         101.706      -0.00878839         149.398
0.527                  -0.387152        -136.504         -50.8715         100.337         -50.8716         100.335      -0.00887638          149.33
0.528                  -0.405396        -137.021         -50.6524         98.9415         -50.6524         98.9397      -0.00896661         149.262
0.529                  -0.424114        -137.537         -50.4338         97.5216         -50.4338         97.5198      -0.00905911         149.195
0.53                   -0.443295        -138.053         -50.2158         96.0769         -50.2159         96.0752      -0.00915387         149.127
0.531                  -0.462926        -138.568         -49.9986         94.6072         -49.9987         94.6056      -0.00925091         149.059
0.532                  -0.482995        -139.082         -49.7824         93.1125         -49.7825          93.111      -0.00935024         148.991
0.533                   -0.50349        -139.595         -49.5672         91.5926         -49.5673         91.5912      -0.00945186         148.922
0.534                  -0.524396        -140.108         -49.3533         90.0475         -49.3534         90.0461      -0.00955579         148.854
0.535                  -0.545701        -140.619         -49.1408         88.4772         -49.1409         88.4759      -0.00966203         148.786
0.536                   -0.56739        -141.129         -48.9298         86.8817         -48.9299         86.8806      -0.00977059         148.717
0.537                  -0.589449        -141.638         -48.7206         85.2613         -48.7206         85.2602      -0.00988148         148.649
0.538                  -0.611864        -142.146         -48.5132         83.6161         -48.5133         83.6151      -0.00999471          148.58
0.539                  -0.634618        -142.653         -48.3079         81.9463          -48.308         81.9454       -0.0101103         148.511
0.54                   -0.657698        -143.159         -48.1048         80.2523         -48.1049         80.2515       -0.0102282         148.442
0.541                  -0.681088        -143.664         -47.9042         78.5346         -47.9042         78.5339       -0.0103484         148.373
0.542                  -0.704771        -144.168         -47.7061         76.7936         -47.7062         76.7931       -0.0104711         148.304
0.543                  -0.728732         -144.67         -47.5108           75.03         -47.5109         75.0295        -0.010596         148.235
0.544                  -0.752954        -145.172         -47.3185         73.2444         -47.3185          73.244       -0.0107234         148.166
0.545                  -0.777422        -145.672         -47.1292         71.4375         -47.1292         71.4373       -0.0108531         148.097
0.546                  -0.802118        -146.171         -46.9433         69.6103         -46.9433         69.6101       -0.0109851         148.027
0.547                  -0.827026        -146.669         -46.7607         67.7637         -46.7607         67.7636       -0.0111195         147.957
0.548                  -0.852129        -147.166         -46.5818         65.8987         -46.5818         65.8987       -0.0112563         147.888
0.549                   -0.87741        -147.662         -46.4066         64.0164         -46.4066         64.0165       -0.0113954         147.818
0.55                   -0.902852        -148.157         -46.2353          62.118         -46.2353         62.1182       -0.0115369         147.748
0.551                  -0.928438        -148.651          -46.068         60.2049          -46.068         60.2051       -0.0116807         147.678
0.552                  -0.954152        -149.144         -45.9048         58.2783         -45.9048         58.2786       -0.0118269         147.608
0.553                  -0.979975        -149.636         -45.7459         56.3396         -45.7458           56.34       -0.0119753         147.538
0.554                   -1.00589        -150.127         -45.5912         54.3904         -45.5912         54.3909       -0.0121261         147.467
0.555                   -1.03189        -150.618         -45.4409         52.4322         -45.4409         52.4326       -0.0122792         147.397
0.556                   -1.05794        -151.107         -45.2951         50.4664          -45.295         50.4669       -0.0124345         147.326
0.557                   -1.08404        -151.596         -45.1537         48.4947         -45.1536         48.4952       -0.0125922         147.256
0.558                   -1.11016        -152.085         -45.0168         46.5186         -45.0166         46.5192        -0.012752         147.185
0.559                   -1.13629        -152.573         -44.8843         44.5398         -44.8842         44.5404       -0.0129141         147.114
0.56                    -1.16242        -153.061         -44.7563         42.5599         -44.7562         42.5605       -0.0130784         147.043
0.561                   -1.18852        -153.548         -44.6328         40.5804         -44.6327          40.581       -0.0132449         146.972
0.562                   -1.21459        -154.035         -44.5136         38.6029         -44.5135         38.6036       -0.0134135         146.901
0.563                   -1.24061        -154.522         -44.3988         36.6289         -44.3986         36.6296       -0.0135842         146.829
0.564                   -1.26656        -155.009         -44.2882         34.6599          -44.288         34.6605        -0.013757         146.758
0.565                   -1.29243        -155.497         -44.1817         32.6972         -44.1815         32.6978       -0.0139318         146.686
0.566                    -1.3182        -155.984         -44.0793         30.7423         -44.0791         30.7429       -0.0141086         146.615
0.567                   -1.34386        -156.472         -43.9807         28.7964         -43.9805         28.7969       -0.0142874         146.543
0.568                    -1.3694         -156.96         -43.8859         26.8606         -43.8857         26.8611       -0.0144681         146.471
0.569                    -1.3948        -157.449         -43.7948         24.9362         -43.7945         24.9367       -0.0146507         146.399
0.57                    -1.42006        -157.939         -43.7071          23.024         -43.7068         23.0245       -0.0148351         146.326
0.571                   -1.44515         -158.43         -43.6227         21.1251         -43.6224         21.1256       -0.0150212         146.254
0.572                   -1.47008        -158.921         -43.5414         19.2403         -43.5412         19.2407        -0.015209         146.182
0.573                   -1.49482        -159.415         -43.4631         17.3704         -43.4629         17.3707       -0.0153985         146.109
0.574                   -1.51938        -159.909         -43.3876          15.516         -43.3874         15.5163       -0.0155896         146.036
0.575                   -1.54373        -160.405         -43.3147         13.6776         -43.3145         13.6779       -0.0157822         145.963
0.576                   -1.56788        -160.903         -43.2443         11.8558         -43.2441          11.856       -0.0159762          145.89
0.577                   -1.59181        -161.403         -43.1761          10.051         -43.1759         10.0511       -0.0161716         145.817
0.578                   -1.61552        -161.906           -43.11         8.26341         -43.1098         8.26353       -0.0163683         145.744
0.579                     -1.639         -162.41         -43.0458         6.49335         -43.0456         6.49343       -0.0165662         145.671
0.58                    -1.66225        -162.917         -42.9834         4.74095         -42.9831         4.74099       -0.0167653         145.597
0.581                   -1.68527        -163.427         -42.9225         3.00631         -42.9223         3.00631       -0.0169654         145.523
0.582                   -1.70804        -163.941          -42.863         1.28945         -42.8628         1.28941       -0.0171666          145.45
0.583                   -1.73057        -164.457         -42.8048       -0.409667         -42.8046       -0.409738       -0.0173686         145.376
0.584                   -1.75286        -164.977         -42.7477        -2.09113         -42.7475        -2.09123       -0.0175715         145.301
0.585                   -1.77491          -165.5         -42.6915        -3.75509         -42.6913        -3.75522       -0.0177752         145.227
0.586                   -1.79672        -166.028         -42.6362        -5.40173          -42.636        -5.40188       -0.0179795         145.153
0.587                   -1.81829         -166.56         -42.5815        -7.03129         -42.5813        -7.03146       -0.0181844         145.078
0.588                   -1.83963        -167.096         -42.5273        -8.64403         -42.5272        -8.64423       -0.0183898         145.003
0.589                   -1.86074        -167.637         -42.4736        -10.2403         -42.4734        -10.2405       -0.0185956         144.928
0.59                    -1.88162        -168.183         -42.4202        -11.8204           -42.42        -11.8206       -0.0188018         144.853
0.591                    -1.9023        -168.735         -42.3669        -13.3846         -42.3668        -13.3849       -0.0190083         144.778
0.592                   -1.92278        -169.292         -42.3138        -14.9335         -42.3136        -14.9337        -0.019215         144.703
0.593                   -1.94306        -169.854         -42.2606        -16.4674         -42.2605        -16.4676       -0.0194219         144.627
0.594                   -1.96316        -170.423         -42.2073        -17.9866         -42.2072        -17.9869       -0.0196289         144.552
0.595                   -1.98311        -170.999         -42.1539        -19.4918         -42.1538         -19.492        -0.019836         144.476
0.596                    -2.0029        -171.581         -42.1001        -20.9832            -42.1        -20.9834        -0.020043           144.4
0.597                   -2.02257         -172.17          -42.046        -22.4614          -42.046        -22.4616       -0.0202501         144.323
0.598                   -2.04213        -172.767         -41.9915        -23.9268         -41.9914         -23.927       -0.0204571         144.247
0.599                   -2.06161        -173.371         -41.9365        -25.3799         -41.9364        -25.3801       -0.0206641          144.17
0.6                     -2.08103        -173.983         -41.8809        -26.8212         -41.8809        -26.8214        -0.020871         144.094
0.601                   -2.10042        -174.603         -41.8248        -28.2512         -41.8247        -28.2514       -0.0210779         144.017
0.602                    -2.1198        -175.232          -41.768        -29.6703         -41.7679        -29.6704       -0.0212847         143.939
0.603                   -2.13922         -175.87         -41.7104         -31.079         -41.7104        -31.0791       -0.0214914         143.862
0.604                    -2.1587        -176.518         -41.6521        -32.4778         -41.6521        -32.4779       -0.0216982         143.784
0.605                   -2.17827        -177.175         -41.5931        -33.8672          -41.593        -33.8673       -0.0219051         143.707
0.606                   -2.19799        -177.841         -41.5332        -35.2477         -41.5332        -35.2477       -0.0221121         143.629
0.607                   -2.21789        -178.519         -41.4724        -36.6197         -41.4724        -36.6197       -0.0223193          143.55
0.608                   -2.23802        -179.206         -41.4108        -37.9836         -41.4108        -37.9836       -0.0225268         143.472
0.609                   -2.25842        -179.905         -41.3482          -39.34         -41.3482        -39.3399       -0.0227347         143.393
0.61                    -2.27916         179.385         -41.2847        -40.6893         -41.2847        -40.6892        -0.022943         143.315
0.611                   -2.30027         178.663         -41.2203         -42.032         -41.2203        -42.0319       -0.0231521         143.235
0.612                   -2.32183         177.929         -41.1549        -43.3685         -41.1549        -43.3683       -0.0233618         143.156
0.613                   -2.34389         177.183         -41.0885        -44.6992         -41.0885         -44.699       -0.0235725         143.077
0.614                   -2.36651         176.424         -41.0211        -46.0247         -41.0211        -46.0244       -0.0237843         142.997
0.615                   -2.38978         175.653         -40.9526        -47.3452         -40.9527        -47.3449       -0.0239973         142.917
0.616                   -2.41375         174.868         -40.8832        -48.6613         -40.8833        -48.6609       -0.0242117         142.837
0.617                   -2.43851         174.069         -40.8128        -49.9733         -40.8129        -49.9729       -0.0244278         142.756
0.618                   -2.46414         173.256         -40.7414        -51.2817         -40.7414        -51.2812       -0.0246456         142.675
0.619                   -2.49072         172.429         -40.6689        -52.5868         -40.6689        -52.5864       -0.0248655         142.594
0.62                    -2.51835         171.588         -40.5954        -53.8892         -40.5955        -53.8886       -0.0250876         142.513
0.621                   -2.54711         170.731         -40.5209         -55.189          -40.521        -55.1885       -0.0253121         142.431
0.622                   -2.57711          169.86         -40.4454        -56.4869         -40.4455        -56.4863       -0.0255393          142.35
0.623                   -2.60845         168.973         -40.3689         -57.783          -40.369        -57.7824       -0.0257694         142.268
0.624                   -2.64124          168.07         -40.2914        -59.0778         -40.2915        -59.0772       -0.0260026         142.185
0.625                   -2.67559         167.152          -40.213        -60.3717         -40.2131         -60.371       -0.0262392         142.103
0.626                   -2.71162         166.217         -40.1336         -61.665         -40.1337        -61.6643       -0.0264793          142.02
0.627                   -2.74944         165.267         -40.0532        -62.9581         -40.0533        -62.9573       -0.0267232         141.937
0.628                    -2.7892         164.299          -39.972        -64.2513          -39.972        -64.2504       -0.0269712         141.853
0.629                   -2.83102         163.316         -39.8898        -65.5449         -39.8898         -65.544       -0.0272235         141.769
0.63                    -2.87504         162.315         -39.8067        -66.8393         -39.8068        -66.8384       -0.0274803         141.685
0.631                    -2.9214         161.298         -39.7228        -68.1348         -39.7228        -68.1338       -0.0277418         141.601
0.632                   -2.97026         160.264          -39.638        -69.4317         -39.6381        -69.4307       -0.0280082         141.516
0.633                   -3.02176         159.213         -39.5524        -70.7303         -39.5525        -70.7293       -0.0282798         141.431
0.634                   -3.07606         158.145         -39.4661        -72.0309         -39.4661        -72.0299       -0.0285569         141.346
0.635                   -3.13333         157.061          -39.379        -73.3338          -39.379        -73.3328       -0.0288395         141.261
0.636                   -3.19373         155.959         -39.2911        -74.6393         -39.2912        -74.6382       -0.0291279         141.175
0.637                   -3.25744         154.842         -39.2026        -75.9476         -39.2027        -75.9466       -0.0294224         141.089
0.638                   -3.32463         153.708         -39.1134        -77.2591         -39.1135         -77.258        -0.029723         141.002
0.639                   -3.39549         152.558         -39.0236        -78.5739         -39.0237        -78.5728       -0.0300301         140.915
0.64                     -3.4702         151.392         -38.9333        -79.8923         -38.9333        -79.8912       -0.0303438         140.828
0.641                   -3.54894          150.21         -38.8424        -81.2145         -38.8424        -81.2134       -0.0306642         140.741
0.642                   -3.63192         149.014         -38.7509        -82.5408          -38.751        -82.5397       -0.0309916         140.653
0.643                   -3.71932         147.803         -38.6591        -83.8713         -38.6591        -83.8702       -0.0313262         140.565
0.644                   -3.81135         146.578         -38.5668        -85.2063         -38.5668        -85.2051        -0.031668         140.476
0.645                   -3.90822          145.34         -38.4742        -86.5458         -38.4742        -86.5447       -0.0320174         140.388
0.646                   -4.01011         144.089         -38.3812        -87.8902         -38.3812         -87.889       -0.0323743         140.299
0.647                   -4.11726         142.825          -38.288        -89.2394          -38.288        -89.2383       -0.0327391         140.209
0.648                   -4.22985         141.551         -38.1946        -90.5937         -38.1946        -90.5926       -0.0331118         140.119
0.649                   -4.34811         140.265          -38.101        -91.9532          -38.101        -91.9521       -0.0334927         140.029
0.65                    -4.47224         138.971         -38.0073        -93.3179         -38.0073        -93.3168       -0.0338818         139.938
0.651                   -4.60247         137.668         -37.9135        -94.6879         -37.9135        -94.6869       -0.0342793         139.847
0.652                   -4.73901         136.357         -37.8198        -96.0634         -37.8198        -96.0623       -0.0346854         139.756
0.653                   -4.88208          135.04         -37.7261        -97.4443          -37.726        -97.4432       -0.0351002         139.664
0.654                    -5.0319         133.718         -37.6325        -98.8306         -37.6324        -98.8296       -0.0355238         139.572
0.655                   -5.18869         132.392          -37.539        -100.222          -37.539        -100.221       -0.0359565          139.48
0.656                   -5.35267         131.063         -37.4458         -101.62         -37.4458        -101.619       -0.0363983         139.387
0.657                   -5.52408         129.733         -37.3529        -103.022         -37.3528        -103.021       -0.0368494         139.294
0.658                   -5.70314         128.404         -37.2603         -104.43         -37.2602        -104.429       -0.0373099           139.2
0.659                   -5.89009         127.077         -37.1681        -105.843          -37.168        -105.842       -0.0377801         139.106
0.66                    -6.08516         125.753         -37.0763        -107.261         -37.0763         -107.26       -0.0382599         139.012
0.661                    -6.2886         124.435         -36.9851        -108.684          -36.985        -108.683       -0.0387497         138.917
0.662                   -6.50065         123.124         -36.8944        -110.112         -36.8943        -110.111       -0.0392495         138.821
0.663                   -6.72158         121.823         -36.8043        -111.545         -36.8043        -111.544       -0.0397596         138.726
0.664                   -6.95164         120.533          -36.715        -112.981         -36.7149        -112.981         -0.04028         138.629
0.665                   -7.19112         119.256         -36.6263        -114.422         -36.6262        -114.422       -0.0408109         138.533
0.666                   -7.44031         117.995         -36.5384        -115.867         -36.5383        -115.866       -0.0413526         138.436
0.667                    -7.6995         116.753         -36.4513        -117.315         -36.4512        -117.315       -0.0419051         138.338
0.668                   -7.96902         115.532         -36.3651        -118.767          -36.365        -118.766       -0.0424686          138.24
0.669                    -8.2492         114.334         -36.2798        -120.222         -36.2797        -120.221       -0.0430434         138.142
0.67                     -8.5404         113.164         -36.1954        -121.679         -36.1953        -121.678       -0.0436297         138.043
0.671                   -8.84301         112.024          -36.112        -123.138         -36.1119        -123.137       -0.0442275         137.943
0.672                   -9.15744         110.918         -36.0296        -124.599         -36.0295        -124.598       -0.0448372         137.843
0.673                   -9.48412         109.851         -35.9482        -126.061         -35.9482        -126.061       -0.0454588         137.743
0.674                   -9.82353         108.826         -35.8679        -127.524         -35.8678        -127.524       -0.0460927         137.642
0.675                   -10.1762         107.849         -35.7887        -128.988         -35.7886        -128.988       -0.0467391          137.54
0.676                   -10.5426         106.926         -35.7105        -130.452         -35.7105        -130.452       -0.0473981         137.439
0.677                   -10.9233         106.063         -35.6335        -131.916         -35.6334        -131.915       -0.0480701         137.336
0.678                    -11.319         105.267         -35.5576        -133.378         -35.5575        -133.378       -0.0487552         137.233
0.679                   -11.7303         104.546         -35.4827        -134.839         -35.4827        -134.839       -0.0494537         137.129
0.68                    -12.1579         103.911          -35.409        -136.298         -35.4089        -136.298       -0.0501658         137.025
0.681                   -12.6025         103.371         -35.3364        -137.755         -35.3363        -137.755       -0.0508919          136.92
0.682                   -13.0647         102.942         -35.2648         -139.21         -35.2647        -139.209       -0.0516322         136.815
0.683                   -13.5454         102.636         -35.1943         -140.66         -35.1942         -140.66        -0.052387         136.709
0.684                   -14.0451         102.473         -35.1248        -142.108         -35.1248        -142.108       -0.0531567         136.603
0.685                   -14.5643         102.472         -35.0563        -143.551         -35.0563         -143.55       -0.0539414         136.496
0.686                   -15.1034          102.66         -34.9888        -144.989         -34.9888        -144.989       -0.0547415         136.388
0.687                   -15.6623         103.064         -34.9222        -146.422         -34.9222        -146.422       -0.0555574          136.28
0.688                   -16.2406         103.719         -34.8565         -147.85         -34.8565         -147.85       -0.0563894         136.171
0.689                    -16.837         104.666         -34.7916        -149.272         -34.7916        -149.272       -0.0572378         136.061
0.69                    -17.4491          105.95         -34.7275        -150.687         -34.7275        -150.687       -0.0581031         135.951
0.691                   -18.0727         107.625         -34.6642        -152.096         -34.6642        -152.096       -0.0589855          135.84
0.692                   -18.7016         109.747         -34.6015        -153.498         -34.6015        -153.498       -0.0598856         135.728
0.693                   -19.3261         112.376         -34.5394        -154.893         -34.5394        -154.893       -0.0608037         135.616
0.694                   -19.9329         115.567         -34.4778         -156.28         -34.4778         -156.28       -0.0617401         135.503
0.695                   -20.5039         119.356         -34.4168         -157.66         -34.4168         -157.66       -0.0626955         135.389
0.696                   -21.0165         123.753         -34.3561        -159.032         -34.3561        -159.032       -0.0636702         135.274
0.697                   -21.4452         128.715         -34.2958        -160.395         -34.2958        -160.395       -0.0646646         135.159