! TOUCHSTONE file generated by CST MICROWAVE STUDIO
! Date and time: Fri Oct 30 07:58:06 2020
! Project name: Scenario_1_Circular_Tissue_out_of_Line.cst
! Parameters = {dy1=52.843; L_HA=400; MT=2.54; Rad_Dielectric=30; Rad_Lower=7.3; Rad_Upper=30; a_HA=580; a_WG=246; b_HA=500; b_WG=121; c_HA=0; c_WG=187; d_feed=85; dx1=520; h_feed=15; h_lower=18; h_upper=40}
! Header version: 2018
! Port assignment regex: !\s*Touchstone port\s*([0-9]+)\s*=\s*(CST MWS port|CST DS port)\s*([0-9]+|Zmin|Zmax)\s*\(\"(.*)\"\)(\s*mode\s*([0-9]+))?.*
! Touchstone port assignment:
! Touchstone port 1 = CST MWS port 1 ("")
! Touchstone port 2 = CST MWS port 2 ("")
# GHz S DB R 50
0.5                    -0.131075        -122.478         -61.0436        -60.9484         -61.0436        -60.9484      -0.00738557         151.143
0.501                  -0.136745        -122.926         -60.8527        -62.3678         -60.8527        -62.3678      -0.00744845         151.078
0.502                  -0.142671        -123.376         -60.6607        -63.8052         -60.6607        -63.8052      -0.00751187         151.012
0.503                  -0.148861        -123.829         -60.4677        -65.2608         -60.4677        -65.2607      -0.00757587         150.947
0.504                  -0.155327        -124.284         -60.2737        -66.7349         -60.2737        -66.7349      -0.00764051         150.881
0.505                  -0.162078        -124.741         -60.0788         -68.228         -60.0788         -68.228      -0.00770583         150.816
0.506                  -0.169124        -125.201         -59.8831        -69.7404         -59.8831        -69.7404       -0.0077719          150.75
0.507                  -0.176476        -125.663         -59.6868        -71.2725         -59.6868        -71.2725      -0.00783876         150.684
0.508                  -0.184145        -126.127         -59.4898        -72.8245         -59.4898        -72.8245      -0.00790648         150.619
0.509                   -0.19214        -126.593         -59.2924        -74.3967         -59.2924        -74.3967      -0.00797514         150.553
0.51                   -0.200472        -127.062         -59.0946        -75.9894         -59.0946        -75.9894      -0.00804479         150.487
0.511                   -0.20915        -127.532         -58.8966        -77.6029         -58.8966        -77.6029      -0.00811552         150.421
0.512                  -0.218185        -128.005         -58.6984        -79.2374         -58.6984        -79.2374      -0.00818741         150.355
0.513                  -0.227586        -128.479         -58.5003         -80.893         -58.5003         -80.893      -0.00826052         150.288
0.514                   -0.23736        -128.955         -58.3023        -82.5699         -58.3023        -82.5699      -0.00833494         150.222
0.515                  -0.247518        -129.434         -58.1045        -84.2682         -58.1045        -84.2682      -0.00841075         150.156
0.516                  -0.258065        -129.914         -57.9072         -85.988         -57.9072         -85.988      -0.00848803         150.089
0.517                  -0.269008        -130.395         -57.7105        -87.7294         -57.7105        -87.7293      -0.00856685         150.023
0.518                  -0.280353        -130.878         -57.5144        -89.4921         -57.5144        -89.4921      -0.00864728         149.956
0.519                  -0.292104        -131.363         -57.3193        -91.2762         -57.3193        -91.2762       -0.0087294         149.889
0.52                   -0.304264        -131.849         -57.1251        -93.0816         -57.1251        -93.0816      -0.00881328         149.822
0.521                  -0.316834        -132.337         -56.9321        -94.9079         -56.9321        -94.9079      -0.00889896         149.756
0.522                  -0.329815        -132.825         -56.7405         -96.755         -56.7405         -96.755       -0.0089865         149.689
0.523                  -0.343204        -133.314         -56.5504        -98.6225         -56.5504        -98.6224      -0.00907593         149.621
0.524                  -0.356999        -133.805         -56.3619         -100.51         -56.3619         -100.51      -0.00916729         149.554
0.525                  -0.371192        -134.296         -56.1752        -102.417         -56.1752        -102.417      -0.00926061         149.487
0.526                  -0.385777        -134.788         -55.9906        -104.343         -55.9906        -104.343      -0.00935588          149.42
0.527                  -0.400744         -135.28          -55.808        -106.287          -55.808        -106.287       -0.0094531         149.352
0.528                   -0.41608        -135.773         -55.6277        -108.248         -55.6277        -108.248      -0.00955227         149.285
0.529                  -0.431772        -136.267         -55.4498        -110.227         -55.4498        -110.227      -0.00965335         149.217
0.53                   -0.447803         -136.76         -55.2745        -112.221         -55.2745        -112.221      -0.00975631         149.149
0.531                  -0.464154        -137.254         -55.1018         -114.23         -55.1018         -114.23      -0.00986111         149.082
0.532                  -0.480805        -137.748         -54.9319        -116.254         -54.9319        -116.254      -0.00996768         149.014
0.533                  -0.497733        -138.241         -54.7649         -118.29         -54.7649         -118.29        -0.010076         148.946
0.534                  -0.514914        -138.735          -54.601        -120.338          -54.601        -120.338       -0.0101859         148.878
0.535                  -0.532322        -139.229         -54.4401        -122.397         -54.4401        -122.397       -0.0102974          148.81
0.536                   -0.54993        -139.723         -54.2823        -124.465         -54.2823        -124.465       -0.0104104         148.741
0.537                   -0.56771        -140.216         -54.1278        -126.542         -54.1278        -126.542       -0.0105247         148.673
0.538                  -0.585634         -140.71         -53.9766        -128.625         -53.9766        -128.625       -0.0106404         148.605
0.539                  -0.603672        -141.203         -53.8287        -130.715         -53.8287        -130.715       -0.0107573         148.536
0.54                   -0.621797        -141.697         -53.6841        -132.808         -53.6841        -132.808       -0.0108754         148.467
0.541                  -0.639978        -142.191         -53.5428        -134.905         -53.5428        -134.905       -0.0109945         148.399
0.542                  -0.658191        -142.685         -53.4048        -137.003         -53.4048        -137.003       -0.0111145          148.33
0.543                  -0.676407         -143.18         -53.2701        -139.103         -53.2701        -139.103       -0.0112355         148.261
0.544                  -0.694604        -143.675         -53.1386        -141.201         -53.1386        -141.201       -0.0113574         148.192
0.545                  -0.712758        -144.171         -53.0103        -143.297         -53.0103        -143.297       -0.0114799         148.123
0.546                   -0.73085        -144.668         -52.8852        -145.391         -52.8852        -145.391       -0.0116032         148.054
0.547                  -0.748863        -145.167         -52.7631         -147.48         -52.7631         -147.48       -0.0117272         147.984
0.548                  -0.766783        -145.666         -52.6439        -149.563         -52.6439        -149.563       -0.0118517         147.915
0.549                  -0.784597        -146.167         -52.5276        -151.641         -52.5276        -151.641       -0.0119768         147.846
0.55                   -0.802299        -146.671         -52.4141        -153.711         -52.4141        -153.711       -0.0121025         147.776
0.551                  -0.819883        -147.176         -52.3032        -155.773         -52.3032        -155.773       -0.0122287         147.706
0.552                  -0.837349        -147.684         -52.1947        -157.826         -52.1947        -157.826       -0.0123553         147.636
0.553                  -0.854699        -148.194         -52.0886        -159.869         -52.0886        -159.869       -0.0124824         147.566
0.554                  -0.871939        -148.708         -51.9848        -161.902         -51.9848        -161.902         -0.01261         147.496
0.555                  -0.889077        -149.224          -51.883        -163.924          -51.883        -163.924        -0.012738         147.426
0.556                  -0.906125        -149.744         -51.7832        -165.935         -51.7832        -165.935       -0.0128665         147.356
0.557                    -0.9231        -150.268         -51.6851        -167.934         -51.6851        -167.934       -0.0129954         147.285
0.558                  -0.940018        -150.796         -51.5887        -169.921         -51.5887        -169.921       -0.0131248         147.215
0.559                  -0.956901        -151.328         -51.4938        -171.895         -51.4938        -171.895       -0.0132546         147.144
0.56                   -0.973771        -151.864         -51.4003        -173.856         -51.4003        -173.856        -0.013385         147.074
0.561                  -0.990653        -152.405         -51.3079        -175.805         -51.3079        -175.805       -0.0135158         147.003
0.562                   -1.00758        -152.951         -51.2166        -177.741         -51.2166        -177.741       -0.0136472         146.932
0.563                   -1.02457        -153.502         -51.1262        -179.664         -51.1262        -179.664       -0.0137791          146.86
0.564                   -1.04166        -154.058         -51.0366         178.425         -51.0366         178.425       -0.0139116         146.789
0.565                   -1.05889        -154.619         -50.9477         176.527         -50.9477         176.527       -0.0140447         146.718
0.566                   -1.07628        -155.186         -50.8593         174.642         -50.8593         174.642       -0.0141784         146.646
0.567                   -1.09387        -155.758         -50.7713         172.769         -50.7713         172.769       -0.0143127         146.575
0.568                   -1.11169        -156.337         -50.6835         170.908         -50.6835         170.908       -0.0144478         146.503
0.569                   -1.12979        -156.921          -50.596         169.059          -50.596         169.059       -0.0145836         146.431
0.57                     -1.1482        -157.511         -50.5085         167.221         -50.5085         167.221       -0.0147201         146.359
0.571                   -1.16695        -158.107         -50.4209         165.395         -50.4209         165.395       -0.0148574         146.287
0.572                   -1.18608        -158.709         -50.3333         163.579         -50.3333         163.579       -0.0149956         146.214
0.573                   -1.20564        -159.318         -50.2454         161.773         -50.2454         161.773       -0.0151346         146.142
0.574                   -1.22566        -159.933         -50.1572         159.977         -50.1572         159.977       -0.0152746         146.069
0.575                   -1.24618        -160.554         -50.0686          158.19         -50.0686          158.19       -0.0154155         145.996
0.576                   -1.26723        -161.181         -49.9796         156.412         -49.9796         156.412       -0.0155573         145.923
0.577                   -1.28887        -161.815         -49.8901         154.643         -49.8901         154.643       -0.0157002          145.85
0.578                   -1.31112        -162.456            -49.8         152.881            -49.8         152.881       -0.0158442         145.777
0.579                   -1.33403        -163.102         -49.7093         151.127         -49.7093         151.127       -0.0159893         145.704
0.58                    -1.35764        -163.756         -49.6178          149.38         -49.6178          149.38       -0.0161355          145.63
0.581                   -1.38199        -164.415         -49.5257         147.639         -49.5257         147.639        -0.016283         145.556
0.582                   -1.40711        -165.081         -49.4328         145.904         -49.4328         145.904       -0.0164317         145.483
0.583                   -1.43306        -165.754         -49.3391         144.174         -49.3391         144.174       -0.0165817         145.409
0.584                   -1.45988        -166.433         -49.2446         142.449         -49.2446         142.449       -0.0167331         145.334
0.585                   -1.48759        -167.118         -49.1492         140.728         -49.1492         140.728       -0.0168858          145.26
0.586                   -1.51626         -167.81         -49.0529         139.011         -49.0529         139.011         -0.01704         145.186
0.587                   -1.54591        -168.508         -48.9558         137.297         -48.9558         137.297       -0.0171957         145.111
0.588                    -1.5766        -169.212         -48.8578         135.586         -48.8578         135.586        -0.017353         145.036
0.589                   -1.60837        -169.922         -48.7589         133.877         -48.7589         133.877       -0.0175118         144.961
0.59                    -1.64125        -170.639          -48.659         132.169          -48.659         132.169       -0.0176724         144.886
0.591                    -1.6753        -171.361         -48.5583         130.463         -48.5583         130.463       -0.0178346         144.811
0.592                   -1.71056        -172.089         -48.4567         128.757         -48.4567         128.757       -0.0179986         144.735
0.593                   -1.74708        -172.823         -48.3542         127.052         -48.3542         127.052       -0.0181644         144.659
0.594                    -1.7849        -173.562         -48.2508         125.346         -48.2508         125.346       -0.0183322         144.583
0.595                   -1.82407        -174.307         -48.1466          123.64         -48.1466          123.64       -0.0185019         144.507
0.596                   -1.86463        -175.058         -48.0416         121.932         -48.0416         121.932       -0.0186736         144.431
0.597                   -1.90663        -175.813         -47.9357         120.223         -47.9357         120.223       -0.0188474         144.355
0.598                   -1.95012        -176.573         -47.8291         118.512         -47.8291         118.512       -0.0190233         144.278
0.599                   -1.99515        -177.339         -47.7217         116.799         -47.7217         116.799       -0.0192015         144.201
0.6                     -2.04176        -178.108         -47.6137         115.082         -47.6137         115.082       -0.0193819         144.124
0.601                      -2.09        -178.883         -47.5049         113.363         -47.5049         113.363       -0.0195648         144.047
0.602                   -2.13992        -179.661         -47.3955          111.64         -47.3955          111.64         -0.01975          143.97
0.603                   -2.19156         179.557         -47.2855         109.914         -47.2855         109.914       -0.0199377         143.892
0.604                   -2.24497         178.771         -47.1749         108.183         -47.1749         108.183        -0.020128         143.814
0.605                   -2.30019         177.983         -47.0639         106.448         -47.0639         106.448        -0.020321         143.736
0.606                   -2.35728         177.191         -46.9523         104.708         -46.9523         104.708       -0.0205167         143.658
0.607                   -2.41627         176.397         -46.8404         102.964         -46.8404         102.964       -0.0207152          143.58
0.608                   -2.47721           175.6         -46.7281         101.214         -46.7281         101.214       -0.0209166         143.501
0.609                   -2.54014         174.802         -46.6156         99.4589         -46.6156         99.4589        -0.021121         143.422
0.61                    -2.60509         174.002         -46.5027         97.6982         -46.5027         97.6982       -0.0213285         143.343
0.611                   -2.67211         173.202         -46.3897         95.9319         -46.3897         95.9319       -0.0215391         143.264
0.612                   -2.74123         172.401         -46.2766         94.1597         -46.2766         94.1597       -0.0217529         143.184
0.613                   -2.81248           171.6         -46.1634         92.3816         -46.1634         92.3816         -0.02197         143.104
0.614                   -2.88589         170.799         -46.0502         90.5974         -46.0502         90.5974       -0.0221905         143.024
0.615                   -2.96148             170          -45.937         88.8072          -45.937         88.8072       -0.0224146         142.944
0.616                   -3.03929         169.203          -45.824         87.0108          -45.824         87.0108       -0.0226422         142.864
0.617                   -3.11932         168.407         -45.7111         85.2084         -45.7111         85.2084       -0.0228735         142.783
0.618                    -3.2016         167.615         -45.5985         83.3998         -45.5985         83.3998       -0.0231086         142.702
0.619                   -3.28612         166.826         -45.4862         81.5852         -45.4862         81.5852       -0.0233475         142.621
0.62                    -3.37289         166.041         -45.3743         79.7646         -45.3743         79.7646       -0.0235903          142.54
0.621                   -3.46191         165.261         -45.2627         77.9382         -45.2627         77.9382       -0.0238373         142.458
0.622                   -3.55317         164.487         -45.1517          76.106         -45.1517          76.106       -0.0240883         142.376
0.623                   -3.64665         163.718         -45.0412         74.2681         -45.0412         74.2681       -0.0243436         142.294
0.624                   -3.74234         162.957         -44.9313         72.4249         -44.9313         72.4249       -0.0246032         142.212
0.625                   -3.84019         162.203         -44.8221         70.5765         -44.8221         70.5765       -0.0248672         142.129
0.626                   -3.94018         161.458         -44.7135         68.7231         -44.7135         68.7231       -0.0251357         142.046
0.627                   -4.04225         160.721         -44.6057          66.865         -44.6057          66.865       -0.0254089         141.963
0.628                   -4.14635         159.995         -44.4987         65.0024         -44.4987         65.0024       -0.0256867         141.879
0.629                   -4.25241         159.278         -44.3926         63.1356         -44.3926         63.1356       -0.0259693         141.796
0.63                    -4.36037         158.573         -44.2874         61.2651         -44.2874         61.2651       -0.0262567         141.712
0.631                   -4.47014          157.88          -44.183          59.391          -44.183          59.391       -0.0265492         141.628
0.632                   -4.58163         157.199         -44.0796         57.5138         -44.0796         57.5138       -0.0268467         141.543
0.633                   -4.69475         156.532         -43.9773         55.6338         -43.9773         55.6338       -0.0271493         141.458
0.634                   -4.80937         155.877         -43.8759         53.7514         -43.8759         53.7514       -0.0274571         141.373
0.635                   -4.92539         155.238         -43.7756          51.867         -43.7756          51.867       -0.0277703         141.288
0.636                   -5.04267         154.612         -43.6763         49.9809         -43.6763         49.9809       -0.0280889         141.202
0.637                   -5.16109         154.002         -43.5781         48.0937         -43.5781         48.0937        -0.028413         141.116
0.638                   -5.28049         153.407         -43.4809         46.2057         -43.4809         46.2057       -0.0287426          141.03
0.639                   -5.40073         152.828         -43.3849         44.3173         -43.3849         44.3173       -0.0290779         140.943
0.64                    -5.52166         152.265         -43.2899          42.429         -43.2899          42.429       -0.0294189         140.856
0.641                   -5.64311         151.718          -43.196         40.5411          -43.196         40.5411       -0.0297657         140.769
0.642                   -5.76492         151.187         -43.1031         38.6541         -43.1031         38.6541       -0.0301185         140.682
0.643                   -5.88692         150.673         -43.0113         36.7684         -43.0113         36.7684       -0.0304772         140.594
0.644                   -6.00894         150.174         -42.9206         34.8843         -42.9206         34.8843        -0.030842         140.506
0.645                    -6.1308          149.69         -42.8309         33.0024         -42.8309         33.0024       -0.0312129         140.417
0.646                   -6.25235         149.222         -42.7421         31.1228         -42.7421         31.1228       -0.0315901         140.328
0.647                   -6.37341         148.769         -42.6543         29.2461         -42.6543         29.2461       -0.0319736         140.239
0.648                   -6.49383          148.33         -42.5675         27.3725         -42.5675         27.3725       -0.0323634          140.15
0.649                   -6.61344         147.904         -42.4815         25.5024         -42.4815         25.5024       -0.0327598          140.06
0.65                     -6.7321         147.491         -42.3964          23.636         -42.3964          23.636       -0.0331627          139.97
0.651                   -6.84966          147.09         -42.3121         21.7738         -42.3121         21.7738       -0.0335723         139.879
0.652                   -6.96601           146.7         -42.2286         19.9159         -42.2286         19.9159       -0.0339886         139.788
0.653                   -7.08103          146.32         -42.1458         18.0626         -42.1458         18.0626       -0.0344118         139.697
0.654                   -7.19462         145.949         -42.0636         16.2141         -42.0636         16.2141       -0.0348419         139.605
0.655                   -7.30668         145.585         -41.9821         14.3706         -41.9821         14.3706        -0.035279         139.513
0.656                   -7.41716         145.227         -41.9012         12.5324         -41.9012         12.5323       -0.0357232         139.421
0.657                   -7.52601         144.874         -41.8207         10.6994         -41.8207         10.6994       -0.0361747         139.328
0.658                   -7.63318         144.524         -41.7407         8.87199         -41.7407         8.87199       -0.0366335         139.235
0.659                   -7.73868         144.177         -41.6611         7.05014         -41.6611         7.05014       -0.0370997         139.141
0.66                    -7.84251          143.83         -41.5819         5.23394         -41.5819         5.23394       -0.0375735         139.047
0.661                   -7.94469         143.482         -41.5029         3.42345         -41.5029         3.42345        -0.038055         138.953
0.662                   -8.04528         143.133         -41.4242          1.6187         -41.4242          1.6187       -0.0385443         138.858
0.663                   -8.14434         142.779         -41.3457       -0.180308         -41.3457       -0.180308       -0.0390416         138.763
0.664                   -8.24196         142.421         -41.2673        -1.97359         -41.2673        -1.97359       -0.0395468         138.667
0.665                   -8.33825         142.056         -41.1889        -3.76118         -41.1889        -3.76118       -0.0400603         138.571
0.666                   -8.43334         141.684         -41.1106        -5.54316         -41.1106        -5.54316       -0.0405822         138.474
0.667                   -8.52735         141.303         -41.0322        -7.31961         -41.0322        -7.31961       -0.0411126         138.377
0.668                   -8.62046         140.913         -40.9537        -9.09063         -40.9537        -9.09063       -0.0416516          138.28
0.669                   -8.71284         140.511         -40.8751        -10.8563         -40.8751        -10.8563       -0.0421994         138.182
0.67                    -8.80467         140.097         -40.7963        -12.6169         -40.7963        -12.6169       -0.0427563         138.083
0.671                   -8.89616         139.671         -40.7173        -14.3725         -40.7173        -14.3725       -0.0433223         137.984
0.672                   -8.98751         139.231          -40.638        -16.1232          -40.638        -16.1232       -0.0438977         137.885
0.673                   -9.07896         138.777         -40.5584        -17.8693         -40.5584        -17.8693       -0.0444826         137.785
0.674                   -9.17073         138.308         -40.4784        -19.6111         -40.4784        -19.6111       -0.0450773         137.685
0.675                   -9.26306         137.824         -40.3981        -21.3486         -40.3981        -21.3486        -0.045682         137.584
0.676                    -9.3562         137.325         -40.3173        -23.0822         -40.3173        -23.0822       -0.0462969         137.482
0.677                   -9.45041         136.809         -40.2361         -24.812         -40.2361         -24.812       -0.0469221          137.38
0.678                   -9.54594         136.278         -40.1543        -26.5384         -40.1543        -26.5384        -0.047558         137.278
0.679                   -9.64307          135.73         -40.0721        -28.2616         -40.0721        -28.2616       -0.0482048         137.175
0.68                    -9.74205         135.167         -39.9894        -29.9819         -39.9894        -29.9819       -0.0488627         137.071
0.681                   -9.84317         134.588         -39.9061        -31.6995         -39.9061        -31.6995        -0.049532         136.967
0.682                    -9.9467         133.993         -39.8222        -33.4148         -39.8222        -33.4148        -0.050213         136.862
0.683                   -10.0529         133.383         -39.7377         -35.128         -39.7377         -35.128       -0.0509059         136.757
0.684                   -10.1621         132.759         -39.6527        -36.8394         -39.6527        -36.8394        -0.051611         136.651
0.685                   -10.2745         132.121          -39.567        -38.5493          -39.567        -38.5493       -0.0523287         136.545
0.686                   -10.3905         131.469         -39.4808         -40.258         -39.4808         -40.258       -0.0530592         136.437
0.687                   -10.5103         130.805         -39.3939        -41.9657         -39.3939        -41.9657       -0.0538029          136.33
0.688                   -10.6342         130.129         -39.3065        -43.6728         -39.3065        -43.6728       -0.0545601         136.221
0.689                   -10.7625         129.443         -39.2184        -45.3795         -39.2184        -45.3795       -0.0553311         136.112
0.69                    -10.8955         128.748         -39.1297        -47.0862         -39.1297        -47.0862       -0.0561164         136.002
0.691                   -11.0335         128.044         -39.0405        -48.7929         -39.0405        -48.7929       -0.0569162         135.892
0.692                   -11.1769         127.334         -38.9507        -50.5002         -38.9507        -50.5002       -0.0577309         135.781
0.693                   -11.3258         126.619         -38.8603         -52.208         -38.8603         -52.208        -0.058561         135.669
0.694                   -11.4807         125.901         -38.7694        -53.9169         -38.7694        -53.9169       -0.0594069         135.556
0.695                   -11.6418         125.181          -38.678        -55.6268          -38.678        -55.6268        -0.060269         135.443
0.696                   -11.8095         124.462          -38.586        -57.3381          -38.586        -57.3381       -0.0611477         135.329
0.697                    -11.984         123.746         -38.4936         -59.051         -38.4936         -59.051       -0.0620435         135.214