! TOUCHSTONE file generated by CST MICROWAVE STUDIO
! Date and time: Wed Oct 28 19:17:58 2020
! Project name: Scenario_1_Circular_Tissue_out_of_Line.cst
! Parameters = {dy1=52.843; L_HA=400; MT=2.54; Rad_Dielectric=30; Rad_Lower=7.3; Rad_Upper=30; a_HA=580; a_WG=246; b_HA=500; b_WG=121; c_HA=0; c_WG=187; d_feed=85; dx1=693; h_feed=15; h_lower=18; h_upper=40}
! Header version: 2018
! Port assignment regex: !\s*Touchstone port\s*([0-9]+)\s*=\s*(CST MWS port|CST DS port)\s*([0-9]+|Zmin|Zmax)\s*\(\"(.*)\"\)(\s*mode\s*([0-9]+))?.*
! Touchstone port assignment:
! Touchstone port 1 = CST MWS port 1 ("")
! Touchstone port 2 = CST MWS port 2 ("")
# GHz S DB R 50
0.5                    -0.155254        -122.286         -61.9795        -167.043         -61.9795        -167.043      -0.00769112         151.136
0.501                  -0.159146        -122.729         -61.8674        -168.672         -61.8649         -168.68      -0.00775232         151.071
0.502                  -0.163223        -123.174         -61.7533        -170.309         -61.7485        -170.323      -0.00781385         151.006
0.503                  -0.167487        -123.621         -61.6373        -171.953         -61.6303        -171.974      -0.00787573         150.941
0.504                  -0.171944        -124.071         -61.5194        -173.605         -61.5103        -173.632      -0.00793798         150.875
0.505                  -0.176596        -124.522         -61.3996        -175.264         -61.3886        -175.297      -0.00800061          150.81
0.506                   -0.18145        -124.976         -61.2779        -176.931         -61.2651        -176.969      -0.00806363         150.744
0.507                  -0.186509        -125.433         -61.1543        -178.605         -61.1398        -178.648      -0.00812706         150.678
0.508                  -0.191778        -125.892         -61.0289         179.713         -61.0128         179.666      -0.00819091         150.613
0.509                  -0.197262        -126.353         -60.9016         178.024         -60.8842         177.973      -0.00825521         150.547
0.51                   -0.202965        -126.816         -60.7726         176.327         -60.7539         176.273      -0.00831995         150.481
0.511                  -0.208894        -127.282         -60.6418         174.623         -60.6219         174.565      -0.00838517         150.415
0.512                  -0.215053         -127.75         -60.5092          172.91         -60.4883          172.85      -0.00845087         150.349
0.513                  -0.221448        -128.221         -60.3749          171.19         -60.3531         171.127      -0.00851708         150.283
0.514                  -0.228084        -128.694         -60.2389         169.462         -60.2163         169.397      -0.00858382         150.217
0.515                  -0.234968         -129.17         -60.1012         167.726          -60.078         167.659      -0.00865109         150.151
0.516                  -0.242105        -129.648          -59.962         165.982         -59.9381         165.913      -0.00871893         150.084
0.517                  -0.249502        -130.129         -59.8211          164.23         -59.7968          164.16      -0.00878735         150.018
0.518                  -0.257165        -130.612         -59.6787          162.47         -59.6541         162.398      -0.00885637         149.951
0.519                  -0.265102        -131.098         -59.5347         160.701         -59.5099         160.629      -0.00892602         149.885
0.52                   -0.273318        -131.586         -59.3893         158.924         -59.3644         158.851      -0.00899631         149.818
0.521                  -0.281821        -132.077         -59.2425         157.138         -59.2176         157.065      -0.00906728         149.751
0.522                   -0.29062         -132.57         -59.0942         155.344         -59.0694          155.27      -0.00913893         149.684
0.523                   -0.29972        -133.066         -58.9446          153.54           -58.92         153.467       -0.0092113         149.617
0.524                  -0.309131        -133.565         -58.7938         151.728         -58.7694         151.655      -0.00928442          149.55
0.525                   -0.31886        -134.066         -58.6416         149.907         -58.6176         149.834       -0.0093583         149.483
0.526                  -0.328917         -134.57         -58.4883         148.076         -58.4647         148.004      -0.00943297         149.416
0.527                  -0.339309        -135.077         -58.3338         146.236         -58.3107         146.165      -0.00950847         149.348
0.528                  -0.350046        -135.586         -58.1782         144.386         -58.1558         144.316      -0.00958482         149.281
0.529                  -0.361138        -136.098         -58.0216         142.526         -57.9998         142.457      -0.00966204         149.213
0.53                   -0.372594        -136.613          -57.864         140.657          -57.843         140.589      -0.00974018         149.146
0.531                  -0.384424         -137.13         -57.7055         138.777         -57.6853         138.711      -0.00981925         149.078
0.532                  -0.396638         -137.65         -57.5462         136.887         -57.5268         136.823       -0.0098993          149.01
0.533                  -0.409248        -138.173         -57.3861         134.986         -57.3676         134.924      -0.00998035         148.942
0.534                  -0.422263        -138.698         -57.2252         133.075         -57.2077         133.015       -0.0100624         148.874
0.535                  -0.435696        -139.226         -57.0638         131.154         -57.0472         131.096       -0.0101456         148.806
0.536                  -0.449558        -139.757         -56.9017         129.221         -56.8862         129.166       -0.0102299         148.738
0.537                  -0.463861         -140.29         -56.7392         127.277         -56.7247         127.224       -0.0103153         148.669
0.538                  -0.478617        -140.826         -56.5762         125.322         -56.5628         125.272       -0.0104019         148.601
0.539                  -0.493839        -141.364         -56.4129         123.356         -56.4006         123.309       -0.0104897         148.532
0.54                   -0.509538        -141.905         -56.2493         121.378         -56.2381         121.334       -0.0105788         148.464
0.541                   -0.52573        -142.449         -56.0855         119.388         -56.0755         119.348       -0.0106692         148.395
0.542                  -0.542426        -142.995         -55.9216         117.387         -55.9128         117.351       -0.0107609         148.326
0.543                   -0.55964        -143.543         -55.7578         115.375         -55.7501         115.342        -0.010854         148.257
0.544                  -0.577385        -144.094          -55.594          113.35         -55.5874         113.321       -0.0109485         148.188
0.545                  -0.595676        -144.648         -55.4303         111.314         -55.4249         111.289       -0.0110445         148.119
0.546                  -0.614526        -145.203          -55.267         109.266         -55.2627         109.245        -0.011142          148.05
0.547                  -0.633949        -145.761          -55.104         107.206         -55.1008         107.189       -0.0112411          147.98
0.548                  -0.653958        -146.321         -54.9414         105.134         -54.9393         105.121       -0.0113417         147.911
0.549                  -0.674566        -146.884         -54.7794          103.05         -54.7784         103.042        -0.011444         147.841
0.55                   -0.695787        -147.448          -54.618         100.955          -54.618         100.951        -0.011548         147.771
0.551                  -0.717634        -148.014         -54.4573         98.8475         -54.4583         98.8489       -0.0116537         147.701
0.552                  -0.740118        -148.582         -54.2975          96.729         -54.2995         96.7352       -0.0117612         147.631
0.553                   -0.76325        -149.151         -54.1386         94.5991         -54.1415         94.6101       -0.0118705         147.561
0.554                  -0.787042        -149.723         -53.9808         92.4581         -53.9845          92.474       -0.0119817         147.491
0.555                  -0.811503        -150.295          -53.824         90.3062         -53.8285          90.327       -0.0120948         147.421
0.556                   -0.83664        -150.869         -53.6685         88.1436         -53.6737         88.1693       -0.0122098          147.35
0.557                  -0.862461        -151.444         -53.5142         85.9707         -53.5202         86.0013       -0.0123268         147.279
0.558                  -0.888969        -152.019         -53.3614         83.7877          -53.368         83.8232       -0.0124459         147.209
0.559                  -0.916169        -152.596           -53.21          81.595         -53.2172         81.6353        -0.012567         147.138
0.56                   -0.944061        -153.173         -53.0603         79.3931          -53.068         79.4381       -0.0126902         147.067
0.561                  -0.972641         -153.75         -52.9121         77.1823         -52.9203         77.2319       -0.0128156         146.996
0.562                   -1.00191        -154.328         -52.7657          74.963         -52.7743         75.0172       -0.0129431         146.925
0.563                   -1.03185        -154.905         -52.6211         72.7359           -52.63         72.7944       -0.0130729         146.853
0.564                   -1.06245        -155.482         -52.4784         70.5013         -52.4876          70.564       -0.0132048         146.782
0.565                    -1.0937        -156.059         -52.3376         68.2599          -52.347         68.3266       -0.0133391          146.71
0.566                   -1.12558        -156.634         -52.1989         66.0123         -52.2083         66.0828       -0.0134756         146.638
0.567                   -1.15807        -157.209         -52.0622          63.759         -52.0717          63.833       -0.0136144         146.567
0.568                   -1.19112        -157.783         -51.9276         61.5006         -51.9371         61.5779       -0.0137555         146.495
0.569                   -1.22472        -158.355         -51.7951         59.2378         -51.8046         59.3181       -0.0138989         146.422
0.57                    -1.25881        -158.926         -51.6648         56.9714         -51.6742         57.0543       -0.0140447          146.35
0.571                   -1.29336        -159.495         -51.5367         54.7018          -51.546         54.7872       -0.0141928         146.278
0.572                   -1.32832        -160.062         -51.4109         52.4299           -51.42         52.5173       -0.0143432         146.205
0.573                   -1.36363        -160.627         -51.2873         50.1562         -51.2961         50.2454        -0.014496         146.132
0.574                   -1.39923         -161.19          -51.166         47.8816         -51.1745         47.9721       -0.0146511          146.06
0.575                   -1.43506        -161.751         -51.0469         45.6067         -51.0551         45.6982       -0.0148085         145.987
0.576                   -1.47105         -162.31           -50.93         43.3322         -50.9379         43.4243       -0.0149682         145.914
0.577                   -1.50714        -162.866         -50.8154         41.0588         -50.8229         41.1512       -0.0151301          145.84
0.578                   -1.54325        -163.421          -50.703         38.7871         -50.7101         38.8794       -0.0152943         145.767
0.579                   -1.57931        -163.975         -50.5928         36.5178         -50.5994         36.6097       -0.0154608         145.693
0.58                    -1.61526        -164.527         -50.4847         34.2516         -50.4909         34.3426       -0.0156294          145.62
0.581                   -1.65102        -165.077         -50.3788         31.9891         -50.3845         32.0789       -0.0158002         145.546
0.582                   -1.68652        -165.628         -50.2749         29.7308         -50.2801         29.8191       -0.0159732         145.472
0.583                   -1.72171        -166.177         -50.1729         27.4773         -50.1778         27.5638       -0.0161482         145.398
0.584                   -1.75654        -166.727          -50.073         25.2292         -50.0773         25.3135       -0.0163253         145.324
0.585                   -1.79095        -167.278         -49.9749         22.9869         -49.9788         23.0689       -0.0165044         145.249
0.586                   -1.82491        -167.831         -49.8786          20.751         -49.8821         20.8303       -0.0166856         145.175
0.587                    -1.8584        -168.385         -49.7841         18.5219         -49.7871         18.5982       -0.0168686           145.1
0.588                    -1.8914        -168.943         -49.6912         16.2999         -49.6939         16.3731       -0.0170537         145.025
0.589                    -1.9239        -169.504         -49.5999         14.0855         -49.6022         14.1553       -0.0172406          144.95
0.59                    -1.95592        -170.069         -49.5101          11.879          -49.512         11.9452       -0.0174293         144.875
0.591                   -1.98749        -170.639         -49.4218         9.68057         -49.4233         9.74309       -0.0176199         144.799
0.592                   -2.01862        -171.215         -49.3347         7.49056          -49.336         7.54926       -0.0178123         144.724
0.593                   -2.04939        -171.798         -49.2489         5.30915         -49.2499         5.36393       -0.0180065         144.648
0.594                   -2.07983        -172.388         -49.1643          3.1365          -49.165          3.1873       -0.0182024         144.572
0.595                   -2.11004        -172.985         -49.0807        0.972741         -49.0812         1.01952       -0.0184001         144.496
0.596                   -2.14007        -173.591         -48.9982        -1.18203         -48.9985         -1.1393       -0.0185996          144.42
0.597                   -2.17004        -174.206         -48.9165        -3.32777         -48.9166        -3.28906       -0.0188008         144.343
0.598                   -2.20003        -174.831         -48.8356        -5.46445         -48.8357        -5.42974       -0.0190037         144.267
0.599                   -2.23014        -175.465         -48.7555         -7.5921         -48.7554        -7.56131       -0.0192084          144.19
0.6                     -2.26049         -176.11          -48.676        -9.71076         -48.6759        -9.68382       -0.0194148         144.113
0.601                   -2.29118        -176.765         -48.5971        -11.8205         -48.5969        -11.7973        -0.019623         144.036
0.602                   -2.32233         -177.43         -48.5187        -13.9215         -48.5184        -13.9019        -0.019833         143.958
0.603                   -2.35405        -178.107         -48.4406        -16.0138         -48.4404        -15.9977       -0.0200448         143.881
0.604                   -2.38646        -178.794         -48.3629        -18.0976         -48.3627        -18.0848       -0.0202585         143.803
0.605                   -2.41967        -179.493         -48.2855        -20.1731         -48.2853        -20.1635       -0.0204741         143.725
0.606                   -2.45378         179.798         -48.2083        -22.2406         -48.2082        -22.2339       -0.0206916         143.647
0.607                   -2.48892         179.077         -48.1312        -24.3002         -48.1312        -24.2963       -0.0209111         143.569
0.608                   -2.52518         178.346         -48.0541        -26.3522         -48.0542        -26.3509       -0.0211327          143.49
0.609                   -2.56267         177.605         -47.9771         -28.397         -47.9773        -28.3979       -0.0213563         143.411
0.61                    -2.60149         176.852         -47.9001        -30.4347         -47.9004        -30.4378       -0.0215821         143.332
0.611                   -2.64174          176.09          -47.823        -32.4657         -47.8234        -32.4707       -0.0218102         143.253
0.612                    -2.6835         175.318         -47.7457        -34.4904         -47.7462         -34.497       -0.0220406         143.174
0.613                   -2.72688         174.535         -47.6682         -36.509         -47.6689         -36.517       -0.0222733         143.094
0.614                   -2.77195         173.744         -47.5906        -38.5219         -47.5914        -38.5311       -0.0225085         143.014
0.615                   -2.81881         172.943         -47.5127        -40.5294         -47.5136        -40.5396       -0.0227462         142.934
0.616                   -2.86753         172.133         -47.4345        -42.5319         -47.4355        -42.5429       -0.0229866         142.854
0.617                   -2.91819         171.315          -47.356        -44.5298         -47.3571        -44.5414       -0.0232296         142.773
0.618                   -2.97088         170.489         -47.2772        -46.5234         -47.2784        -46.5353       -0.0234755         142.693
0.619                   -3.02566         169.655          -47.198        -48.5131         -47.1993        -48.5252       -0.0237243         142.612
0.62                    -3.08261         168.814         -47.1185        -50.4992         -47.1198        -50.5113        -0.023976          142.53
0.621                   -3.14181         167.966         -47.0386        -52.4821           -47.04         -52.494       -0.0242309         142.449
0.622                   -3.20331         167.111         -46.9583        -54.4621         -46.9598        -54.4738       -0.0244889         142.367
0.623                   -3.26721          166.25         -46.8776        -56.4397         -46.8791        -56.4509       -0.0247502         142.285
0.624                   -3.33355         165.384         -46.7966        -58.4151         -46.7981        -58.4257       -0.0250149         142.203
0.625                   -3.40242         164.512         -46.7152        -60.3887         -46.7167        -60.3986       -0.0252831          142.12
0.626                   -3.47387         163.635         -46.6334        -62.3608         -46.6349          -62.37       -0.0255548         142.038
0.627                   -3.54799         162.754         -46.5513        -64.3317         -46.5527        -64.3401       -0.0258303         141.955
0.628                   -3.62482         161.869         -46.4689        -66.3018         -46.4702        -66.3092       -0.0261096         141.871
0.629                   -3.70444         160.981         -46.3861        -68.2713         -46.3873        -68.2778       -0.0263929         141.788
0.63                    -3.78692         160.091          -46.303        -70.2404         -46.3041         -70.246       -0.0266801         141.704
0.631                   -3.87232         159.198         -46.2197        -72.2095         -46.2206        -72.2141       -0.0269716          141.62
0.632                   -3.96069         158.303         -46.1361        -74.1788         -46.1369        -74.1824       -0.0272672         141.535
0.633                   -4.05211         157.408         -46.0523        -76.1484         -46.0529        -76.1512       -0.0275673         141.451
0.634                   -4.14663         156.513         -45.9683        -78.1187         -45.9687        -78.1205       -0.0278719         141.366
0.635                   -4.24432         155.618         -45.8841        -80.0897         -45.8844        -80.0907        -0.028181          141.28
0.636                   -4.34522         154.725         -45.7999        -82.0616         -45.7999        -82.0619       -0.0284949         141.195
0.637                    -4.4494         153.833         -45.7155        -84.0346         -45.7154        -84.0342       -0.0288137         141.109
0.638                    -4.5569         152.945         -45.6311        -86.0087         -45.6308        -86.0078       -0.0291374         141.023
0.639                   -4.66777          152.06         -45.5468        -87.9841         -45.5462        -87.9826       -0.0294663         140.936
0.64                    -4.78206         151.181         -45.4624        -89.9607         -45.4616        -89.9589       -0.0298003         140.849
0.641                    -4.8998         150.306         -45.3782        -91.9387         -45.3771        -91.9366       -0.0301397         140.762
0.642                   -5.02103         149.439          -45.294        -93.9179         -45.2927        -93.9157       -0.0304846         140.675
0.643                   -5.14577         148.579         -45.2101        -95.8985         -45.2085        -95.8962       -0.0308351         140.587
0.644                   -5.27404         147.728         -45.1263        -97.8803         -45.1246         -97.878       -0.0311913         140.499
0.645                   -5.40586         146.887         -45.0428        -99.8632         -45.0408        -99.8611       -0.0315534          140.41
0.646                   -5.54123         146.058         -44.9595        -101.847         -44.9574        -101.845       -0.0319215         140.322
0.647                   -5.68014          145.24         -44.8766        -103.832         -44.8743        -103.831       -0.0322957         140.233
0.648                   -5.82258         144.437         -44.7941        -105.818         -44.7916        -105.817       -0.0326762         140.143
0.649                   -5.96851         143.648         -44.7119        -107.804         -44.7092        -107.804       -0.0330632         140.053
0.65                     -6.1179         142.876         -44.6302        -109.791         -44.6274        -109.791       -0.0334567         139.963
0.651                    -6.2707         142.121         -44.5489        -111.778          -44.546        -111.779       -0.0338569         139.873
0.652                   -6.42681         141.386         -44.4681        -113.764          -44.465        -113.766        -0.034264         139.782
0.653                   -6.58618         140.672         -44.3877        -115.751         -44.3847        -115.753       -0.0346781          139.69
0.654                   -6.74868         139.979         -44.3079        -117.737         -44.3048         -117.74       -0.0350993         139.599
0.655                   -6.91419          139.31         -44.2287        -119.722         -44.2255        -119.726       -0.0355279         139.507
0.656                   -7.08258         138.666           -44.15        -121.705         -44.1468         -121.71       -0.0359639         139.414
0.657                   -7.25368         138.048         -44.0718        -123.687         -44.0686        -123.693       -0.0364076         139.322
0.658                   -7.42731         137.458         -43.9942        -125.668          -43.991        -125.674       -0.0368591         139.228
0.659                   -7.60325         136.897         -43.9171        -127.646          -43.914        -127.653       -0.0373185         139.135
0.66                     -7.7813         136.367         -43.8406        -129.622         -43.8376        -129.629       -0.0377861         139.041
0.661                   -7.96118         135.868         -43.7646        -131.595         -43.7617        -131.603        -0.038262         138.946
0.662                   -8.14263         135.401         -43.6891        -133.564         -43.6864        -133.573       -0.0387464         138.851
0.663                   -8.32536         134.969         -43.6142        -135.531         -43.6115         -135.54       -0.0392395         138.756
0.664                   -8.50905         134.571         -43.5397        -137.493         -43.5372        -137.502       -0.0397414          138.66
0.665                   -8.69336         134.209         -43.4657        -139.451         -43.4634        -139.461       -0.0402524         138.564
0.666                   -8.87794         133.882         -43.3921        -141.406         -43.3899        -141.415       -0.0407727         138.468
0.667                   -9.06241         133.591         -43.3189        -143.355         -43.3169        -143.365       -0.0413024         138.371
0.668                   -9.24639         133.337         -43.2461        -145.299         -43.2443        -145.309       -0.0418417         138.273
0.669                   -9.42948         133.119         -43.1736        -147.239         -43.1719        -147.248       -0.0423909         138.175
0.67                    -9.61129         132.936         -43.1013        -149.172         -43.0999        -149.181       -0.0429501         138.077
0.671                    -9.7914         132.789         -43.0293        -151.101          -43.028        -151.109       -0.0435196         137.978
0.672                   -9.96942         132.676         -42.9575        -153.023         -42.9563        -153.031       -0.0440996         137.878
0.673                   -10.1449         132.595         -42.8857         -154.94         -42.8848        -154.947       -0.0446904         137.778
0.674                   -10.3176         132.547         -42.8141         -156.85         -42.8133        -156.856       -0.0452921         137.678
0.675                    -10.487         132.528         -42.7424        -158.754         -42.7418         -158.76        -0.045905         137.577
0.676                   -10.6529         132.536         -42.6707        -160.652         -42.6703        -160.657       -0.0465293         137.475
0.677                   -10.8149          132.57          -42.599        -162.544         -42.5986        -162.547       -0.0471654         137.373
0.678                   -10.9727         132.627          -42.527        -164.429         -42.5268        -164.432       -0.0478133         137.271
0.679                   -11.1262         132.703         -42.4549        -166.308         -42.4547        -166.309       -0.0484735         137.168
0.68                    -11.2751         132.797         -42.3825         -168.18         -42.3824         -168.18       -0.0491461         137.064
0.681                   -11.4194         132.905         -42.3097        -170.046         -42.3097        -170.045       -0.0498315          136.96
0.682                   -11.5588         133.023         -42.2366        -171.906         -42.2367        -171.904       -0.0505299         136.855
0.683                   -11.6935          133.15          -42.163        -173.759         -42.1631        -173.756       -0.0512416          136.75
0.684                   -11.8235         133.281         -42.0889        -175.606         -42.0891        -175.603       -0.0519669         136.644
0.685                   -11.9488         133.413         -42.0143        -177.448         -42.0144        -177.443       -0.0527061         136.537
0.686                   -12.0695         133.544          -41.939        -179.284         -41.9392        -179.278       -0.0534595          136.43
0.687                   -12.1859          133.67         -41.8631         178.886         -41.8633         178.893       -0.0542275         136.322
0.688                   -12.2982         133.788         -41.7865         177.062         -41.7866         177.069       -0.0550104         136.214
0.689                   -12.4067         133.897         -41.7091         175.242         -41.7092         175.251       -0.0558084         136.105
0.69                    -12.5116         133.994         -41.6309         173.428          -41.631         173.437       -0.0566221         135.995
0.691                   -12.6134         134.077         -41.5519         171.618          -41.552         171.628       -0.0574516         135.884
0.692                   -12.7124         134.144          -41.472         169.813          -41.472         169.823       -0.0582974         135.773
0.693                    -12.809         134.194         -41.3912         168.012         -41.3911         168.022       -0.0591598         135.662
0.694                   -12.9036         134.226         -41.3094         166.215         -41.3093         166.225       -0.0600393         135.549
0.695                   -12.9966         134.238         -41.2266         164.421         -41.2264         164.432       -0.0609362         135.436
0.696                   -13.0885         134.231         -41.1428         162.631         -41.1425         162.642        -0.061851         135.322
0.697                   -13.1797         134.203          -41.058         160.843         -41.0576         160.855       -0.0627841         135.207