! TOUCHSTONE file generated by CST MICROWAVE STUDIO
! Date and time: Fri Oct 30 07:58:16 2020
! Project name: Scenario_1_Circular_Tissue_out_of_Line.cst
! Parameters = {dy1=70.184; L_HA=400; MT=2.54; Rad_Dielectric=30; Rad_Lower=7.3; Rad_Upper=30; a_HA=580; a_WG=246; b_HA=500; b_WG=121; c_HA=0; c_WG=187; d_feed=85; dx1=520; h_feed=15; h_lower=18; h_upper=40}
! Header version: 2018
! Port assignment regex: !\s*Touchstone port\s*([0-9]+)\s*=\s*(CST MWS port|CST DS port)\s*([0-9]+|Zmin|Zmax)\s*\(\"(.*)\"\)(\s*mode\s*([0-9]+))?.*
! Touchstone port assignment:
! Touchstone port 1 = CST MWS port 1 ("")
! Touchstone port 2 = CST MWS port 2 ("")
# GHz S DB R 50
0.5                    -0.131529        -122.459         -61.1205        -61.5655         -61.1203        -61.5631      -0.00739127         151.143
0.501                  -0.136976        -122.906         -60.9289        -62.9806         -60.9293        -62.9787      -0.00745486         151.078
0.502                  -0.142688        -123.356         -60.7362        -64.4142          -60.737        -64.4126      -0.00751843         151.012
0.503                  -0.148676        -123.808         -60.5425        -65.8665         -60.5437        -65.8652      -0.00758204         150.947
0.504                  -0.154952        -124.263         -60.3477         -67.338         -60.3494        -67.3369      -0.00764576         150.882
0.505                  -0.161526         -124.72         -60.1521        -68.8291         -60.1541        -68.8279      -0.00770967         150.816
0.506                  -0.168411         -125.18         -59.9556        -70.3399         -59.9579        -70.3388      -0.00777389          150.75
0.507                  -0.175618        -125.642         -59.7585         -71.871          -59.761        -71.8697      -0.00783851         150.685
0.508                  -0.183158        -126.106         -59.5607        -73.4225         -59.5635         -73.421      -0.00790368         150.619
0.509                  -0.191042        -126.572         -59.3625        -74.9947         -59.3655         -74.993      -0.00796953         150.553
0.51                    -0.19928        -127.041         -59.1638         -76.588          -59.167        -76.5859       -0.0080362         150.487
0.511                  -0.207885        -127.512          -58.965        -78.2025         -58.9683           -78.2      -0.00810385         150.421
0.512                  -0.216864        -127.984          -58.766        -79.8384         -58.7694        -79.8356      -0.00817265         150.355
0.513                  -0.226229        -128.459          -58.567        -81.4959         -58.5705        -81.4927      -0.00824275         150.289
0.514                  -0.235986        -128.936         -58.3681        -83.1752         -58.3717        -83.1715      -0.00831432         150.222
0.515                  -0.246144        -129.414         -58.1695        -84.8763         -58.1731        -84.8722      -0.00838751         150.156
0.516                   -0.25671        -129.895         -57.9714        -86.5993         -57.9749        -86.5947      -0.00846248         150.089
0.517                  -0.267689        -130.376         -57.7738        -88.3441         -57.7773        -88.3391      -0.00853936         150.023
0.518                  -0.279086         -130.86         -57.5769        -90.1107         -57.5804        -90.1053      -0.00861828         149.956
0.519                  -0.290903        -131.344         -57.3809         -91.899         -57.3843        -91.8932      -0.00869935         149.889
0.52                   -0.303141         -131.83          -57.186        -93.7088         -57.1893        -93.7027      -0.00878264         149.822
0.521                  -0.315801        -132.318         -56.9923        -95.5399         -56.9954        -95.5335      -0.00886823         149.756
0.522                  -0.328879        -132.806         -56.7999         -97.392         -56.8029        -97.3854      -0.00895616         149.688
0.523                  -0.342372        -133.295          -56.609        -99.2647         -56.6118        -99.2579      -0.00904643         149.621
0.524                  -0.356272        -133.785         -56.4198        -101.158         -56.4224        -101.151      -0.00913905         149.554
0.525                  -0.370573        -134.276         -56.2325         -103.07         -56.2349        -103.063      -0.00923399         149.487
0.526                  -0.385263        -134.767         -56.0471        -105.002         -56.0493        -104.995       -0.0093312         149.419
0.527                  -0.400329        -135.259         -55.8639        -106.951         -55.8658        -106.945      -0.00943061         149.352
0.528                  -0.415757        -135.751         -55.6829        -108.919         -55.6847        -108.913      -0.00953214         149.284
0.529                  -0.431529        -136.243         -55.5044        -110.903         -55.5059        -110.897      -0.00963571         149.217
0.53                   -0.447627        -136.735         -55.3285        -112.904         -55.3297        -112.898       -0.0097412         149.149
0.531                  -0.464028        -137.228         -55.1552        -114.919         -55.1562        -114.914       -0.0098485         149.081
0.532                   -0.48071         -137.72         -54.9848        -116.949         -54.9856        -116.944      -0.00995751         149.013
0.533                  -0.497649        -138.213         -54.8172        -118.991         -54.8178        -118.987       -0.0100681         148.945
0.534                  -0.514818        -138.705         -54.6527        -121.045         -54.6531        -121.042       -0.0101802         148.877
0.535                  -0.532191        -139.197         -54.4913         -123.11         -54.4914        -123.108       -0.0102936         148.809
0.536                  -0.549739         -139.69         -54.3331        -125.184          -54.333        -125.183       -0.0104083         148.741
0.537                  -0.567435        -140.182          -54.178        -127.266         -54.1777        -127.266       -0.0105242         148.673
0.538                  -0.585251        -140.674         -54.0263        -129.356         -54.0258        -129.356       -0.0106411         148.604
0.539                  -0.603157        -141.166         -53.8778        -131.451         -53.8772        -131.452        -0.010759         148.536
0.54                   -0.621127        -141.659         -53.7327         -133.55         -53.7319        -133.552       -0.0108778         148.467
0.541                  -0.639133        -142.152         -53.5909        -135.652         -53.5899        -135.656       -0.0109974         148.398
0.542                  -0.657151        -142.645         -53.4523        -137.756         -53.4512        -137.761       -0.0111177         148.329
0.543                  -0.675157        -143.139         -53.3171         -139.86         -53.3159        -139.866       -0.0112388         148.261
0.544                   -0.69313        -143.634         -53.1851        -141.964         -53.1838        -141.971       -0.0113605         148.191
0.545                   -0.71105        -144.129         -53.0562        -144.065         -53.0548        -144.074       -0.0114829         148.122
0.546                    -0.7289        -144.626         -52.9305        -146.164          -52.929        -146.173       -0.0116058         148.053
0.547                  -0.746666        -145.124         -52.8078        -148.258         -52.8063        -148.268       -0.0117292         147.984
0.548                  -0.764338        -145.624          -52.688        -150.347         -52.6864        -150.358       -0.0118532         147.914
0.549                  -0.781906        -146.125          -52.571        -152.429         -52.5695        -152.441       -0.0119777         147.845
0.55                   -0.799367        -146.629         -52.4568        -154.504         -52.4552        -154.518       -0.0121027         147.775
0.551                  -0.816717        -147.135         -52.3451        -156.571         -52.3436        -156.585       -0.0122282         147.705
0.552                   -0.83396        -147.643          -52.236        -158.629         -52.2345        -158.644       -0.0123542         147.636
0.553                  -0.851098        -148.155         -52.1291        -160.678         -52.1277        -160.693       -0.0124807         147.566
0.554                  -0.868141        -148.669         -52.0245        -162.716         -52.0231        -162.732       -0.0126077         147.496
0.555                  -0.885098        -149.187         -51.9219        -164.743         -51.9206         -164.76       -0.0127351         147.425
0.556                  -0.901982        -149.708         -51.8213        -166.759           -51.82        -166.777       -0.0128631         147.355
0.557                  -0.918811        -150.233         -51.7224        -168.764         -51.7211        -168.782       -0.0129916         147.285
0.558                  -0.935601        -150.763         -51.6251        -170.756         -51.6239        -170.774       -0.0131206         147.214
0.559                  -0.952376        -151.296         -51.5293        -172.736         -51.5282        -172.754       -0.0132502         147.143
0.56                   -0.969157        -151.834         -51.4348        -174.704         -51.4339        -174.722       -0.0133803         147.073
0.561                  -0.985969        -152.376         -51.3416        -176.659         -51.3407        -176.677        -0.013511         147.002
0.562                   -1.00284        -152.924         -51.2493        -178.602         -51.2485         -178.62       -0.0136423         146.931
0.563                    -1.0198        -153.476          -51.158         179.469         -51.1573          179.45       -0.0137743         146.859
0.564                   -1.03688        -154.034         -51.0675         177.551         -51.0669         177.533       -0.0139069         146.788
0.565                    -1.0541        -154.597         -50.9776         175.646         -50.9771         175.629       -0.0140402         146.717
0.566                   -1.07151        -155.165         -50.8882         173.754         -50.8878         173.736       -0.0141742         146.645
0.567                   -1.08913        -155.739         -50.7992         171.873         -50.7989         171.856        -0.014309         146.573
0.568                     -1.107        -156.319         -50.7105         170.004         -50.7103         169.988       -0.0144445         146.501
0.569                   -1.12516        -156.905          -50.622         168.147         -50.6218         168.131       -0.0145808          146.43
0.57                    -1.14364        -157.496         -50.5336         166.301         -50.5335         166.285       -0.0147179         146.357
0.571                   -1.16247        -158.094         -50.4451         164.465         -50.4451          164.45       -0.0148559         146.285
0.572                    -1.1817        -158.698         -50.3565          162.64         -50.3566         162.626       -0.0149947         146.213
0.573                   -1.20137        -159.308         -50.2677         160.825         -50.2678         160.811       -0.0151345          146.14
0.574                    -1.2215        -159.924         -50.1786         159.019         -50.1788         159.006       -0.0152753         146.068
0.575                   -1.24214        -160.546         -50.0892         157.223         -50.0894         157.211       -0.0154171         145.995
0.576                   -1.26334        -161.175         -49.9993         155.435         -49.9996         155.423       -0.0155599         145.922
0.577                   -1.28511        -161.811          -49.909         153.655         -49.9093         153.644       -0.0157037         145.849
0.578                   -1.30752        -162.452         -49.8181         151.883         -49.8184         151.873       -0.0158487         145.775
0.579                    -1.3306          -163.1         -49.7266         150.118          -49.727         150.108       -0.0159948         145.702
0.58                    -1.35438        -163.755         -49.6344         148.359         -49.6348         148.351       -0.0161422         145.628
0.581                   -1.37891        -164.416         -49.5416         146.607          -49.542         146.599       -0.0162907         145.555
0.582                   -1.40424        -165.083          -49.448          144.86         -49.4484         144.853       -0.0164406         145.481
0.583                   -1.43039        -165.757         -49.3537         143.118         -49.3541         143.112       -0.0165918         145.407
0.584                   -1.45742        -166.437         -49.2585         141.381          -49.259         141.375       -0.0167444         145.332
0.585                   -1.48537        -167.124         -49.1626         139.647         -49.1631         139.642       -0.0168984         145.258
0.586                   -1.51427        -167.816         -49.0659         137.918         -49.0663         137.913       -0.0170538         145.184
0.587                   -1.54418        -168.515         -48.9683         136.191         -48.9687         136.187       -0.0172108         145.109
0.588                   -1.57514         -169.22         -48.8698         134.466         -48.8703         134.463       -0.0173694         145.034
0.589                   -1.60719        -169.932         -48.7705         132.744          -48.771         132.741       -0.0175297         144.959
0.59                    -1.64037        -170.649         -48.6704         131.023         -48.6708          131.02       -0.0176916         144.884
0.591                   -1.67473        -171.372         -48.5694         129.303         -48.5698         129.301       -0.0178552         144.808
0.592                   -1.71032        -172.101         -48.4676         127.583          -48.468         127.582       -0.0180207         144.733
0.593                   -1.74718        -172.835          -48.365         125.864         -48.3653         125.863       -0.0181881         144.657
0.594                   -1.78536        -173.575         -48.2615         124.144         -48.2618         124.143       -0.0183574         144.581
0.595                   -1.82491        -174.321         -48.1573         122.423         -48.1576         122.423       -0.0185286         144.505
0.596                   -1.86586        -175.072         -48.0523         120.701         -48.0525         120.701        -0.018702         144.429
0.597                   -1.90827        -175.827         -47.9465         118.977         -47.9467         118.978       -0.0188774         144.352
0.598                   -1.95219        -176.588           -47.84         117.252         -47.8402         117.253       -0.0190551         144.275
0.599                   -1.99766        -177.353         -47.7329         115.524         -47.7331         115.525       -0.0192351         144.199
0.6                     -2.04473        -178.123         -47.6251         113.792         -47.6252         113.794       -0.0194173         144.121
0.601                   -2.09344        -178.897         -47.5167         112.058         -47.5168          112.06        -0.019602         144.044
0.602                   -2.14384        -179.675         -47.4077         110.321         -47.4078         110.322       -0.0197892         143.967
0.603                   -2.19598         179.544         -47.2982         108.579         -47.2982         108.581       -0.0199789         143.889
0.604                    -2.2499         178.759         -47.1882         106.833         -47.1882         106.835       -0.0201713         143.811
0.605                   -2.30565         177.972         -47.0777         105.083         -47.0777         105.085       -0.0203664         143.733
0.606                   -2.36326         177.181         -46.9669         103.329         -46.9669         103.331       -0.0205643         143.655
0.607                   -2.42279         176.389         -46.8557         101.569         -46.8557         101.571       -0.0207651         143.576
0.608                   -2.48426         175.594         -46.7443         99.8047         -46.7443         99.8068       -0.0209688         143.498
0.609                   -2.54772         174.798         -46.6326         98.0348         -46.6326         98.0369       -0.0211756         143.419
0.61                    -2.61321         174.001         -46.5208         96.2596         -46.5207         96.2617       -0.0213855          143.34
0.611                   -2.68076         173.204         -46.4089         94.4788         -46.4088         94.4808       -0.0215987          143.26
0.612                    -2.7504         172.406         -46.2969         92.6923         -46.2968         92.6942       -0.0218151         143.181
0.613                   -2.82215         171.608         -46.1849            90.9         -46.1848         90.9019        -0.022035         143.101
0.614                   -2.89605         170.812         -46.0729          89.102         -46.0728         89.1038       -0.0222583         143.021
0.615                   -2.97212         170.017         -45.9611         87.2981          -45.961         87.2998       -0.0224852          142.94
0.616                   -3.05036         169.224         -45.8495         85.4883         -45.8494         85.4899       -0.0227157          142.86
0.617                    -3.1308         168.434         -45.7382         83.6727          -45.738         83.6742         -0.02295         142.779
0.618                   -3.21344         167.647         -45.6271         81.8513          -45.627         81.8527       -0.0231882         142.698
0.619                   -3.29829         166.863         -45.5164         80.0242         -45.5163         80.0254       -0.0234302         142.617
0.62                    -3.38534         166.085         -45.4062         78.1915          -45.406         78.1926       -0.0236763         142.536
0.621                   -3.47458         165.311         -45.2964         76.3532         -45.2963         76.3542       -0.0239265         142.454
0.622                     -3.566         164.543         -45.1872         74.5096         -45.1871         74.5105       -0.0241809         142.372
0.623                   -3.65958         163.782         -45.0785         72.6608         -45.0785         72.6616       -0.0244396          142.29
0.624                   -3.75529         163.028         -44.9705         70.8071         -44.9705         70.8078       -0.0247027         142.207
0.625                   -3.85308         162.281         -44.8633         68.9486         -44.8632         68.9492       -0.0249702         142.125
0.626                   -3.95292         161.544         -44.7567         67.0856         -44.7567         67.0861       -0.0252423         142.042
0.627                   -4.05475         160.815          -44.651         65.2184          -44.651         65.2188       -0.0255191         141.958
0.628                   -4.15852         160.097         -44.5461         63.3473         -44.5462         63.3476       -0.0258005         141.875
0.629                   -4.26415         159.389         -44.4421         61.4725         -44.4422         61.4728       -0.0260868         141.791
0.63                    -4.37156         158.692         -44.3391         59.5945         -44.3391         59.5947        -0.026378         141.707
0.631                   -4.48067         158.007         -44.2369         57.7135          -44.237         57.7137       -0.0266742         141.623
0.632                   -4.59139         157.335         -44.1358         55.8299         -44.1359         55.8301       -0.0269755         141.538
0.633                    -4.7036         156.675         -44.0356         53.9442         -44.0357         53.9443        -0.027282         141.453
0.634                   -4.81721         156.029         -43.9365         52.0566         -43.9366         52.0567       -0.0275937         141.368
0.635                   -4.93208         155.396         -43.8384         50.1676         -43.8386         50.1678       -0.0279107         141.282
0.636                    -5.0481         154.778         -43.7414         48.2777         -43.7416         48.2778       -0.0282331         141.197
0.637                   -5.16512         154.175         -43.6455         46.3871         -43.6456         46.3872        -0.028561         141.111
0.638                   -5.28301         153.587         -43.5506         44.4963         -43.5507         44.4965       -0.0288945         141.024
0.639                   -5.40162         153.013         -43.4568         42.6058         -43.4569         42.6059       -0.0292336         140.938
0.64                     -5.5208         152.455          -43.364         40.7158         -43.3642         40.7161       -0.0295785         140.851
0.641                   -5.64039         151.913         -43.2723          38.827         -43.2725         38.8272       -0.0299292         140.763
0.642                   -5.76023         151.385         -43.1817         36.9396         -43.1819         36.9399       -0.0302857         140.676
0.643                   -5.88018         150.872          -43.092          35.054         -43.0922         35.0543       -0.0306483         140.588
0.644                   -6.00005         150.375         -43.0034         33.1706         -43.0036          33.171       -0.0310169           140.5
0.645                   -6.11971         149.892         -42.9157         31.2899         -42.9159         31.2903       -0.0313916         140.411
0.646                   -6.23899         149.423          -42.829          29.412         -42.8292         29.4125       -0.0317725         140.322
0.647                   -6.35773         148.967         -42.7432         27.5375         -42.7434         27.5381       -0.0321598         140.233
0.648                    -6.4758         148.524         -42.6583         25.6666         -42.6585         25.6672       -0.0325534         140.143
0.649                   -6.59306         148.094         -42.5743         23.7997         -42.5744         23.8003       -0.0329535         140.053
0.65                    -6.70937         147.675          -42.491         21.9369         -42.4912         21.9376       -0.0333601         139.963
0.651                   -6.82462         147.266         -42.4084         20.0786         -42.4086         20.0793       -0.0337734         139.872
0.652                   -6.93869         146.867         -42.3266         18.2251         -42.3268         18.2258       -0.0341934         139.781
0.653                   -7.05149         146.477         -42.2454         16.3765         -42.2456         16.3772       -0.0346203          139.69
0.654                   -7.16295         146.093         -42.1649         14.5331          -42.165         14.5338        -0.035054         139.598
0.655                     -7.273         145.716         -42.0849         12.6949          -42.085         12.6957       -0.0354948         139.506
0.656                   -7.38158         145.344         -42.0053         10.8623         -42.0055          10.863       -0.0359427         139.413
0.657                   -7.48867         144.975         -41.9263         9.03521         -41.9264         9.03596       -0.0363979          139.32
0.658                   -7.59426         144.608         -41.8476         7.21384         -41.8477         7.21458       -0.0368604         139.227
0.659                   -7.69836         144.243         -41.7692         5.39824         -41.7693         5.39897       -0.0373303         139.133
0.66                    -7.80097         143.877         -41.6911         3.58847         -41.6912         3.58916       -0.0378079         139.039
0.661                   -7.90216         143.509         -41.6133         1.78454         -41.6133          1.7852       -0.0382931         138.945
0.662                   -8.00198         143.138         -41.5355      -0.0135322         -41.5356       -0.012918       -0.0387861          138.85
0.663                   -8.10052         142.763         -41.4579        -1.80578          -41.458        -1.80521       -0.0392871         138.754
0.664                   -8.19786         142.383         -41.3804        -3.59223         -41.3804        -3.59172       -0.0397963         138.659
0.665                   -8.29413         141.996         -41.3028        -5.37297         -41.3028        -5.37252       -0.0403136         138.562
0.666                   -8.38946           141.6         -41.2252        -7.14807         -41.2252        -7.14769       -0.0408394         138.466
0.667                   -8.48399         141.196         -41.1475        -8.91765         -41.1475        -8.91733       -0.0413737         138.368
0.668                   -8.57788         140.782         -41.0696        -10.6818         -41.0696        -10.6816       -0.0419167         138.271
0.669                   -8.67132         140.358         -40.9916        -12.4407         -40.9915        -12.4406       -0.0424686         138.173
0.67                    -8.76448         139.921         -40.9133        -14.1946         -40.9132        -14.1945       -0.0430296         138.074
0.671                   -8.85758         139.472         -40.8347        -15.9435         -40.8346        -15.9435       -0.0435998         137.975
0.672                    -8.9508         139.011         -40.7557        -17.6877         -40.7557        -17.6877       -0.0441795         137.875
0.673                   -9.04438         138.535         -40.6764        -19.4274         -40.6763        -19.4275       -0.0447688         137.775
0.674                   -9.13855         138.046         -40.5967        -21.1628         -40.5966         -21.163        -0.045368         137.675
0.675                   -9.23352         137.542         -40.5166        -22.8941         -40.5165        -22.8944       -0.0459772         137.574
0.676                   -9.32955         137.023         -40.4359        -24.6217         -40.4359         -24.622       -0.0465967         137.472
0.677                   -9.42688          136.49         -40.3548        -26.3457         -40.3547        -26.3461       -0.0472268          137.37
0.678                   -9.52575         135.942         -40.2732        -28.0664         -40.2731        -28.0668       -0.0478676         137.267
0.679                   -9.62643         135.379          -40.191        -29.7841         -40.1909        -29.7846       -0.0485194         137.164
0.68                    -9.72917         134.802         -40.1082         -31.499         -40.1081        -31.4996       -0.0491824          137.06
0.681                   -9.83424          134.21         -40.0248        -33.2115         -40.0248        -33.2121        -0.049857         136.956
0.682                   -9.94189         133.605         -39.9409        -34.9218         -39.9408        -34.9225       -0.0505434         136.851
0.683                   -10.0524         132.986         -39.8563        -36.6303         -39.8563        -36.6309       -0.0512419         136.745
0.684                    -10.166         132.353         -39.7711        -38.3371         -39.7711        -38.3378       -0.0519529         136.639
0.685                   -10.2831         131.709         -39.6853        -40.0426         -39.6853        -40.0433       -0.0526765         136.533
0.686                   -10.4038         131.053         -39.5989        -41.7471         -39.5989        -41.7478       -0.0534131         136.425
0.687                   -10.5284         130.387         -39.5118        -43.4508         -39.5118        -43.4515       -0.0541631         136.317
0.688                   -10.6573         129.711         -39.4242        -45.1541         -39.4241        -45.1548       -0.0549268         136.208
0.689                   -10.7906         129.026         -39.3359        -46.8572         -39.3359        -46.8578       -0.0557045         136.099
0.69                    -10.9288         128.334          -39.247        -48.5603          -39.247        -48.5609       -0.0564967         135.989
0.691                   -11.0721         127.637         -39.1575        -50.2638         -39.1575        -50.2644       -0.0573037         135.878
0.692                   -11.2207         126.935         -39.0674        -51.9678         -39.0674        -51.9684       -0.0581259         135.767
0.693                    -11.375          126.23         -38.9767        -53.6727         -38.9767        -53.6733       -0.0589636         135.655
0.694                   -11.5352         125.524         -38.8855        -55.3787         -38.8855        -55.3792       -0.0598174         135.542
0.695                   -11.7017         124.819         -38.7938        -57.0859         -38.7938        -57.0864       -0.0606877         135.429
0.696                   -11.8748         124.118         -38.7016        -58.7946         -38.7016         -58.795       -0.0615749         135.314
0.697                   -12.0547         123.422         -38.6089        -60.5049         -38.6089        -60.5053       -0.0624795         135.199