! TOUCHSTONE file generated by CST MICROWAVE STUDIO
! Date and time: Wed Oct 28 19:18:07 2020
! Project name: Scenario_1_Circular_Tissue_out_of_Line.cst
! Parameters = {dy1=70.184; L_HA=400; MT=2.54; Rad_Dielectric=30; Rad_Lower=7.3; Rad_Upper=30; a_HA=580; a_WG=246; b_HA=500; b_WG=121; c_HA=0; c_WG=187; d_feed=85; dx1=693; h_feed=15; h_lower=18; h_upper=40}
! Header version: 2018
! Port assignment regex: !\s*Touchstone port\s*([0-9]+)\s*=\s*(CST MWS port|CST DS port)\s*([0-9]+|Zmin|Zmax)\s*\(\"(.*)\"\)(\s*mode\s*([0-9]+))?.*
! Touchstone port assignment:
! Touchstone port 1 = CST MWS port 1 ("")
! Touchstone port 2 = CST MWS port 2 ("")
# GHz S DB R 50
0.5                    -0.154669        -122.265          -62.017         -167.52          -62.017         -167.52      -0.00769098         151.138
0.501                  -0.154817        -122.727         -61.9027        -169.071         -61.9028        -169.071      -0.00775055         151.073
0.502                  -0.155362        -123.191         -61.7867        -170.633         -61.7867        -170.633      -0.00781062         151.008
0.503                  -0.156309        -123.656         -61.6688        -172.207         -61.6689        -172.207      -0.00787119         150.942
0.504                  -0.157661        -124.124         -61.5492        -173.792         -61.5493        -173.793      -0.00793227         150.877
0.505                  -0.159422        -124.594         -61.4278         -175.39         -61.4279         -175.39      -0.00799388         150.811
0.506                  -0.161596        -125.066         -61.3046        -176.999         -61.3048        -176.999      -0.00805603         150.746
0.507                  -0.164186         -125.54         -61.1797         -178.62         -61.1799         -178.62      -0.00811872          150.68
0.508                  -0.167196        -126.016          -61.053         179.748         -61.0533         179.748      -0.00818197         150.615
0.509                  -0.170628        -126.493         -60.9246         178.104         -60.9249         178.103      -0.00824578         150.549
0.51                   -0.174487        -126.973         -60.7945         176.448         -60.7948         176.447      -0.00831018         150.483
0.511                  -0.178774        -127.455         -60.6626          174.78         -60.6629          174.78      -0.00837517         150.417
0.512                  -0.183494        -127.938         -60.5291         173.101         -60.5294           173.1      -0.00844076         150.351
0.513                  -0.188649        -128.424         -60.3939         171.409         -60.3943         171.409      -0.00850697         150.285
0.514                  -0.194241        -128.911         -60.2571         169.706         -60.2575         169.706      -0.00857381         150.218
0.515                  -0.200274          -129.4         -60.1186         167.991          -60.119         167.991      -0.00864129         150.152
0.516                  -0.206749        -129.891         -59.9786         166.265          -59.979         166.264      -0.00870943         150.086
0.517                  -0.213669        -130.383          -59.837         164.526         -59.8374         164.525      -0.00877823         150.019
0.518                  -0.221037        -130.878         -59.6939         162.775         -59.6943         162.775      -0.00884773         149.953
0.519                  -0.228854        -131.374         -59.5492         161.013         -59.5497         161.012      -0.00891793         149.886
0.52                   -0.237122        -131.871         -59.4032         159.238         -59.4036         159.238      -0.00898884         149.819
0.521                  -0.245843        -132.371         -59.2557         157.452         -59.2561         157.451      -0.00906048         149.753
0.522                  -0.255018        -132.871         -59.1068         155.653         -59.1072         155.653      -0.00913288         149.686
0.523                   -0.26465        -133.374         -58.9566         153.842          -58.957         153.842      -0.00920605         149.619
0.524                  -0.274738        -133.878         -58.8051         152.019         -58.8055         152.019         -0.00928         149.552
0.525                  -0.285285        -134.384         -58.6524         150.184         -58.6528         150.184      -0.00935475         149.484
0.526                   -0.29629        -134.891         -58.4985         148.337         -58.4989         148.337      -0.00943034         149.417
0.527                  -0.307756        -135.399         -58.3435         146.477         -58.3439         146.477      -0.00950676          149.35
0.528                  -0.319682        -135.909         -58.1874         144.605         -58.1878         144.605      -0.00958406         149.282
0.529                  -0.332068        -136.421         -58.0303         142.721         -58.0307         142.721      -0.00966224         149.215
0.53                   -0.344916        -136.934         -57.8723         140.824         -57.8727         140.824      -0.00974133         149.147
0.531                  -0.358224        -137.448         -57.7134         138.915         -57.7138         138.915      -0.00982136         149.079
0.532                  -0.371994        -137.964         -57.5537         136.994         -57.5541         136.994      -0.00990235         149.012
0.533                  -0.386223         -138.48         -57.3932          135.06         -57.3936          135.06      -0.00998432         148.944
0.534                  -0.400912        -138.999         -57.2321         133.113         -57.2325         133.113       -0.0100673         148.876
0.535                  -0.416061        -139.518         -57.0704         131.154         -57.0708         131.154       -0.0101513         148.807
0.536                  -0.431667        -140.039         -56.9082         129.182         -56.9086         129.182       -0.0102364         148.739
0.537                  -0.447729        -140.561         -56.7456         127.198          -56.746         127.198       -0.0103226         148.671
0.538                  -0.464248        -141.084         -56.5827         125.201          -56.583         125.202       -0.0104099         148.602
0.539                  -0.481219        -141.608         -56.4194         123.192         -56.4198         123.193       -0.0104984         148.534
0.54                   -0.498643        -142.133         -56.2561         121.171         -56.2564         121.171       -0.0105881         148.465
0.541                  -0.516517         -142.66         -56.0926         119.137         -56.0929         119.137        -0.010679         148.396
0.542                  -0.534838        -143.188         -55.9291          117.09         -55.9294         117.091       -0.0107711         148.327
0.543                  -0.553604        -143.716         -55.7658         115.032          -55.766         115.032       -0.0108646         148.258
0.544                  -0.572813        -144.246         -55.6026         112.961         -55.6028         112.962       -0.0109594         148.189
0.545                  -0.592462        -144.777         -55.4397         110.878         -55.4399         110.879       -0.0110556          148.12
0.546                  -0.612547        -145.309         -55.2772         108.784         -55.2774         108.785       -0.0111532         148.051
0.547                  -0.633066        -145.841         -55.1152         106.678         -55.1153         106.678       -0.0112523         147.981
0.548                  -0.654014        -146.375         -54.9537          104.56         -54.9538         104.561       -0.0113528         147.912
0.549                  -0.675388         -146.91         -54.7929         102.431          -54.793         102.432       -0.0114549         147.842
0.55                   -0.697185        -147.446         -54.6329         100.291          -54.633         100.292       -0.0115586         147.772
0.551                  -0.719399        -147.983         -54.4737         98.1396         -54.4738         98.1409        -0.011664         147.702
0.552                  -0.742027         -148.52         -54.3155         95.9782         -54.3155         95.9795        -0.011771         147.632
0.553                  -0.765065        -149.059         -54.1583         93.8065         -54.1583         93.8079       -0.0118798         147.562
0.554                  -0.788506        -149.599         -54.0022          91.625         -54.0022         91.6264       -0.0119903         147.492
0.555                  -0.812347        -150.139         -53.8474          89.434         -53.8474         89.4355       -0.0121027         147.422
0.556                  -0.836583        -150.681         -53.6939         87.2339         -53.6938         87.2354       -0.0122169         147.351
0.557                  -0.861208        -151.223         -53.5418          85.025         -53.5417         85.0266       -0.0123331         147.281
0.558                  -0.886216        -151.767         -53.3911          82.808          -53.391         82.8096       -0.0124513          147.21
0.559                  -0.911602        -152.311          -53.242         80.5831         -53.2419         80.5847       -0.0125714         147.139
0.56                   -0.937361        -152.857         -53.0945         78.3509         -53.0943         78.3526       -0.0126937         147.068
0.561                  -0.963485        -153.403         -52.9487          76.112         -52.9485         76.1137       -0.0128181         146.997
0.562                   -0.98997         -153.95         -52.8046         73.8668         -52.8045         73.8685       -0.0129446         146.926
0.563                   -1.01681        -154.499         -52.6624         71.6159         -52.6622         71.6176       -0.0130733         146.854
0.564                   -1.04399        -155.048          -52.522         69.3599         -52.5218         69.3616       -0.0132043         146.783
0.565                   -1.07152        -155.599         -52.3836         67.0993         -52.3833         67.1011       -0.0133376         146.711
0.566                   -1.09938        -156.151         -52.2471         64.8348         -52.2468         64.8365       -0.0134732         146.639
0.567                   -1.12757        -156.704         -52.1126          62.567         -52.1123         62.5687       -0.0136111         146.567
0.568                   -1.15608        -157.258         -51.9801         60.2964         -51.9798         60.2981       -0.0137514         146.495
0.569                    -1.1849        -157.813         -51.8497         58.0237         -51.8494         58.0254       -0.0138941         146.423
0.57                    -1.21403         -158.37         -51.7213         55.7495          -51.721         55.7512       -0.0140392         146.351
0.571                   -1.24347        -158.927         -51.5951         53.4745         -51.5947         53.4761       -0.0141868         146.278
0.572                   -1.27319        -159.487         -51.4709         51.1992         -51.4705         51.2008       -0.0143368         146.206
0.573                    -1.3032        -160.048         -51.3488         48.9244         -51.3484         48.9259       -0.0144892         146.133
0.574                   -1.33349         -160.61         -51.2288         46.6505         -51.2284          46.652       -0.0146441          146.06
0.575                   -1.36405        -161.174         -51.1108         44.3781         -51.1104         44.3796       -0.0148013         145.987
0.576                   -1.39488        -161.739         -50.9949         42.1079         -50.9945         42.1094        -0.014961         145.914
0.577                   -1.42597        -162.307          -50.881         39.8405         -50.8806         39.8418       -0.0151231         145.841
0.578                   -1.45732        -162.876         -50.7692         37.5762         -50.7687         37.5776       -0.0152876         145.768
0.579                   -1.48891        -163.447         -50.6593         35.3158         -50.6588         35.3171       -0.0154543         145.694
0.58                    -1.52074         -164.02         -50.5513         33.0596         -50.5508         33.0608       -0.0156234          145.62
0.581                   -1.55281        -164.596         -50.4452         30.8082         -50.4447         30.8093       -0.0157947         145.546
0.582                   -1.58512        -165.174         -50.3409          28.562         -50.3404         28.5631       -0.0159683         145.472
0.583                   -1.61765        -165.754         -50.2384         26.3214         -50.2379         26.3224       -0.0161439         145.398
0.584                    -1.6504        -166.337         -50.1376         24.0868         -50.1371         24.0877       -0.0163217         145.324
0.585                   -1.68338        -166.922         -50.0384         21.8585          -50.038         21.8593       -0.0165016         145.249
0.586                   -1.71657         -167.51         -49.9409         19.6369         -49.9405         19.6377       -0.0166835         145.175
0.587                   -1.74998        -168.102         -49.8449         17.4223         -49.8445          17.423       -0.0168673           145.1
0.588                   -1.78361        -168.696         -49.7504         15.2149           -49.75         15.2155        -0.017053         145.025
0.589                   -1.81745        -169.294         -49.6572         13.0149         -49.6568         13.0155       -0.0172406          144.95
0.59                    -1.85151        -169.896         -49.5654         10.8227          -49.565         10.8232         -0.01743         144.875
0.591                   -1.88579        -170.501         -49.4749         8.63822         -49.4745         8.63867       -0.0176212         144.799
0.592                    -1.9203        -171.111         -49.3855         6.46172         -49.3852         6.46211       -0.0178141         144.724
0.593                   -1.95503        -171.724         -49.2973         4.29328         -49.2969         4.29362       -0.0180087         144.648
0.594                   -1.99001        -172.342         -49.2101         2.13297         -49.2097         2.13325        -0.018205         144.572
0.595                   -2.02523        -172.965         -49.1239      -0.0191639         -49.1235      -0.0189427       -0.0184029         144.496
0.596                   -2.06071        -173.593         -49.0385        -2.16311         -49.0382        -2.16294       -0.0186025          144.42
0.597                   -2.09647        -174.226         -48.9541        -4.29889         -48.9537        -4.29877       -0.0188037         144.343
0.598                   -2.13251        -174.864         -48.8703        -6.42653           -48.87        -6.42646       -0.0190066         144.267
0.599                   -2.16887        -175.508         -48.7873        -8.54609          -48.787        -8.54607       -0.0192112          144.19
0.6                     -2.20556        -176.159         -48.7049        -10.6577         -48.7047        -10.6577       -0.0194174         144.113
0.601                    -2.2426        -176.816         -48.6231        -12.7614         -48.6229        -12.7614       -0.0196253         144.036
0.602                   -2.28004        -177.479         -48.5418        -14.8573         -48.5416        -14.8574       -0.0198349         143.958
0.603                    -2.3179         -178.15         -48.4609        -16.9457         -48.4607        -16.9458       -0.0200464         143.881
0.604                   -2.35621        -178.828         -48.3805        -19.0266         -48.3803        -19.0268       -0.0202596         143.803
0.605                   -2.39504        -179.514         -48.3003        -21.1003         -48.3002        -21.1005       -0.0204746         143.725
0.606                   -2.43441         179.793         -48.2205         -23.167         -48.2203        -23.1672       -0.0206916         143.647
0.607                   -2.47439          179.09         -48.1409        -25.2268         -48.1407         -25.227       -0.0209106         143.568
0.608                   -2.51504         178.379         -48.0615          -27.28         -48.0613        -27.2802       -0.0211316          143.49
0.609                   -2.55641         177.659         -47.9822        -29.3268         -47.9821        -29.3271       -0.0213547         143.411
0.61                    -2.59859          176.93          -47.903        -31.3676         -47.9029        -31.3678       -0.0215801         143.332
0.611                   -2.64165          176.19         -47.8239        -33.4024         -47.8238        -33.4027       -0.0218076         143.252
0.612                   -2.68568         175.441         -47.7448        -35.4317         -47.7447         -35.432       -0.0220376         143.173
0.613                   -2.73078         174.681         -47.6657        -37.4556         -47.6656        -37.4559       -0.0222699         143.093
0.614                   -2.77704          173.91         -47.5865        -39.4745         -47.5865        -39.4748       -0.0225048         143.013
0.615                   -2.82458         173.128         -47.5073        -41.4886         -47.5073        -41.4889       -0.0227423         142.933
0.616                   -2.87352         172.336          -47.428        -43.4982          -47.428        -43.4985       -0.0229826         142.853
0.617                   -2.92398         171.531         -47.3486        -45.5036         -47.3486        -45.5039       -0.0232256         142.772
0.618                    -2.9761         170.716          -47.269        -47.5051         -47.2691        -47.5053       -0.0234715         142.691
0.619                   -3.03003         169.889         -47.1893        -49.5029         -47.1894        -49.5032       -0.0237204          142.61
0.62                    -3.08591          169.05         -47.1094        -51.4974         -47.1095        -51.4976       -0.0239724         142.529
0.621                   -3.14392           168.2         -47.0293        -53.4888         -47.0294         -53.489       -0.0242275         142.448
0.622                   -3.20421         167.339         -46.9491        -55.4774         -46.9492        -55.4776        -0.024486         142.366
0.623                   -3.26696         166.466         -46.8686        -57.4635         -46.8688        -57.4636       -0.0247479         142.284
0.624                   -3.33236         165.583          -46.788        -59.4473         -46.7881        -59.4474       -0.0250133         142.201
0.625                   -3.40057          164.69         -46.7071        -61.4291         -46.7073        -61.4292       -0.0252822         142.119
0.626                   -3.47179         163.787          -46.626        -63.4092         -46.6262        -63.4093       -0.0255549         142.036
0.627                    -3.5462         162.875         -46.5448        -65.3878          -46.545        -65.3879       -0.0258314         141.953
0.628                     -3.624         161.954         -46.4633        -67.3651         -46.4635        -67.3652       -0.0261118         141.869
0.629                   -3.70534         161.027         -46.3817        -69.3415         -46.3819        -69.3415       -0.0263962         141.786
0.63                    -3.79042         160.094         -46.2998         -71.317         -46.3001         -71.317       -0.0266847         141.702
0.631                   -3.87939         159.156         -46.2178         -73.292         -46.2181         -73.292       -0.0269775         141.618
0.632                    -3.9724         158.214         -46.1357        -75.2665         -46.1359        -75.2665       -0.0272746         141.533
0.633                    -4.0696         157.271         -46.0534        -77.2409         -46.0537        -77.2409       -0.0275762         141.448
0.634                    -4.1711         156.328          -45.971        -79.2153         -45.9712        -79.2152       -0.0278824         141.363
0.635                   -4.27699         155.386         -45.8885        -81.1898         -45.8887        -81.1897       -0.0281932         141.278
0.636                   -4.38734         154.448         -45.8059        -83.1645         -45.8061        -83.1644       -0.0285089         141.192
0.637                   -4.50221         153.516         -45.7232        -85.1398         -45.7235        -85.1396       -0.0288294         141.106
0.638                   -4.62161         152.591         -45.6405        -87.1155         -45.6408        -87.1154        -0.029155          141.02
0.639                   -4.74553         151.676         -45.5578        -89.0919         -45.5581        -89.0918       -0.0294857         140.933
0.64                    -4.87391         150.773         -45.4751        -91.0691         -45.4754        -91.0689       -0.0298218         140.847
0.641                   -5.00668         149.883         -45.3924         -93.047         -45.3927        -93.0468       -0.0301631         140.759
0.642                   -5.14372          149.01         -45.3098        -95.0258         -45.3101        -95.0256       -0.0305101         140.672
0.643                   -5.28488         148.155         -45.2272        -97.0056         -45.2275        -97.0053       -0.0308626         140.584
0.644                      -5.43         147.319         -45.1448        -98.9862         -45.1451         -98.986       -0.0312209         140.496
0.645                   -5.57887         146.506         -45.0625        -100.968         -45.0628        -100.968       -0.0315851         140.407
0.646                   -5.73124         145.715         -44.9804         -102.95         -44.9807         -102.95       -0.0319554         140.318
0.647                   -5.88687          144.95         -44.8985        -104.934         -44.8988        -104.933       -0.0323317         140.229
0.648                   -6.04547         144.211         -44.8168        -106.918         -44.8171        -106.918       -0.0327144          140.14
0.649                   -6.20676         143.499         -44.7354        -108.903         -44.7357        -108.902       -0.0331036          140.05
0.65                    -6.37042         142.814         -44.6542        -110.888         -44.6545        -110.888       -0.0334993         139.959
0.651                   -6.53614         142.159         -44.5734        -112.875         -44.5737        -112.874       -0.0339017         139.869
0.652                   -6.70361         141.533         -44.4928        -114.861         -44.4931        -114.861        -0.034311         139.778
0.653                    -6.8725         140.936         -44.4127        -116.848          -44.413        -116.848       -0.0347273         139.687
0.654                    -7.0425         140.369         -44.3329        -118.835         -44.3332        -118.835       -0.0351507         139.595
0.655                   -7.21331         139.831         -44.2535        -120.822         -44.2538        -120.822       -0.0355815         139.503
0.656                   -7.38463         139.322         -44.1745        -122.809         -44.1748        -122.808       -0.0360198          139.41
0.657                   -7.55619         138.841          -44.096        -124.795         -44.0962        -124.795       -0.0364657         139.317
0.658                   -7.72772         138.388         -44.0178        -126.781         -44.0181         -126.78       -0.0369194         139.224
0.659                   -7.89898         137.961         -43.9402        -128.765         -43.9405        -128.765       -0.0373811          139.13
0.66                    -8.06974         137.561          -43.863        -130.749         -43.8633        -130.749       -0.0378509         139.036
0.661                   -8.23981         137.185         -43.7863        -132.731         -43.7865        -132.731       -0.0383291         138.942
0.662                     -8.409         136.833         -43.7101        -134.711         -43.7103        -134.711       -0.0388157         138.847
0.663                   -8.57715         136.503         -43.6343         -136.69         -43.6345         -136.69       -0.0393111         138.751
0.664                   -8.74414         136.195          -43.559        -138.666         -43.5593        -138.666       -0.0398153         138.655
0.665                   -8.90986         135.907         -43.4842         -140.64         -43.4844         -140.64       -0.0403286         138.559
0.666                    -9.0742         135.638         -43.4099        -142.611         -43.4101        -142.611       -0.0408511         138.462
0.667                    -9.2371         135.386          -43.336        -144.579         -43.3362        -144.578       -0.0413831         138.365
0.668                    -9.3985          135.15         -43.2625        -146.543         -43.2627        -146.543       -0.0419248         138.268
0.669                   -9.55839          134.93         -43.1895        -148.503         -43.1897        -148.503       -0.0424763         138.169
0.67                    -9.71673         134.724         -43.1168         -150.46          -43.117         -150.46        -0.043038         138.071
0.671                   -9.87352          134.53         -43.0445        -152.412         -43.0447        -152.412       -0.0436099         137.972
0.672                   -10.0288         134.349         -42.9726         -154.36         -42.9727         -154.36       -0.0441924         137.872
0.673                   -10.1826         134.178         -42.9009        -156.303         -42.9011        -156.303       -0.0447856         137.772
0.674                   -10.3348         134.018         -42.8295        -158.241         -42.8297        -158.241       -0.0453898         137.672
0.675                   -10.4857         133.866         -42.7584        -160.173         -42.7585        -160.173       -0.0460053          137.57
0.676                   -10.6352         133.723         -42.6874          -162.1         -42.6875          -162.1       -0.0466322         137.469
0.677                   -10.7834         133.588         -42.6166        -164.021         -42.6167        -164.021       -0.0472709         137.367
0.678                   -10.9304         133.459         -42.5458        -165.936         -42.5459        -165.936       -0.0479215         137.264
0.679                   -11.0761         133.337         -42.4751        -167.845         -42.4752        -167.845       -0.0485844         137.161
0.68                    -11.2208         133.221         -42.4044        -169.748         -42.4045        -169.748       -0.0492599         137.057
0.681                   -11.3645         133.111         -42.3336        -171.644         -42.3337        -171.644       -0.0499481         136.953
0.682                   -11.5073         133.006         -42.2626        -173.533         -42.2627        -173.533       -0.0506494         136.848
0.683                   -11.6492         132.905         -42.1915        -175.416         -42.1916        -175.416       -0.0513641         136.742
0.684                   -11.7903          132.81         -42.1201        -177.292         -42.1202        -177.292       -0.0520925         136.636
0.685                   -11.9307         132.719         -42.0484        -179.161         -42.0485        -179.161       -0.0528348         136.529
0.686                   -12.0706         132.632         -41.9763         178.977         -41.9764         178.976       -0.0535915         136.422
0.687                   -12.2099          132.55         -41.9038         177.121         -41.9038         177.121       -0.0543627         136.314
0.688                   -12.3488         132.473         -41.8307         175.272         -41.8308         175.272       -0.0551489         136.205
0.689                   -12.4874           132.4         -41.7571          173.43         -41.7572         173.429       -0.0559504         136.096
0.69                    -12.6257         132.331         -41.6829         171.594         -41.6829         171.594       -0.0567675         135.986
0.691                   -12.7637         132.267         -41.6079         169.765         -41.6079         169.764       -0.0576006         135.876
0.692                   -12.9017         132.209         -41.5322         167.942         -41.5322         167.941         -0.05845         135.764
0.693                   -13.0395         132.155         -41.4556         166.125         -41.4556         166.125       -0.0593162         135.652
0.694                   -13.1774         132.108         -41.3782         164.314         -41.3782         164.314       -0.0601995          135.54
0.695                   -13.3153         132.066         -41.2998         162.509         -41.2998         162.508       -0.0611003         135.426
0.696                   -13.4534         132.031         -41.2204         160.709         -41.2204         160.708        -0.062019         135.312
0.697                   -13.5916         132.003           -41.14         158.914         -41.1399         158.913       -0.0629561         135.197