! TOUCHSTONE file generated by CST MICROWAVE STUDIO
! Date and time: Mon Oct 26 12:32:24 2020
! Project name: Scenario_1_Circular_Tissue_out_of_Line.cst
! Parameters = {dy1=70.184; L_HA=400; MT=2.54; Rad_Dielectric=30; Rad_Lower=7.3; Rad_Upper=30; a_HA=580; a_WG=246; b_HA=500; b_WG=121; c_HA=0; c_WG=187; d_feed=85; dx1=866; h_feed=15; h_lower=18; h_upper=40}
! Header version: 2018
! Port assignment regex: !\s*Touchstone port\s*([0-9]+)\s*=\s*(CST MWS port|CST DS port)\s*([0-9]+|Zmin|Zmax)\s*\(\"(.*)\"\)(\s*mode\s*([0-9]+))?.*
! Touchstone port assignment:
! Touchstone port 1 = CST MWS port 1 ("")
! Touchstone port 2 = CST MWS port 2 ("")
# GHz S DB R 50
0.5                    -0.142651        -122.388          -62.738         98.7283          -62.738         98.7283      -0.00745262         151.146
0.501                  -0.150019        -122.815         -62.8327         96.5879         -62.8326          96.586      -0.00753192         151.081
0.502                  -0.157469        -123.244         -62.9202         94.3801           -62.92         94.3762      -0.00761153         151.016
0.503                  -0.165002        -123.674         -62.9998         92.1054         -62.9995         92.0997      -0.00769148          150.95
0.504                  -0.172623        -124.107         -63.0705         89.7652         -63.0701         89.7578      -0.00777176         150.885
0.505                  -0.180334        -124.541         -63.1315         87.3615         -63.1309         87.3523      -0.00785238          150.82
0.506                  -0.188138        -124.977         -63.1819         84.8969         -63.1812         84.8861      -0.00793336         150.754
0.507                  -0.196038        -125.415         -63.2209         82.3749         -63.2199         82.3626      -0.00801469         150.688
0.508                  -0.204037        -125.855         -63.2476         79.7995         -63.2465         79.7858      -0.00809639         150.623
0.509                   -0.21214        -126.297         -63.2613         77.1756           -63.26         77.1606      -0.00817847         150.557
0.51                    -0.22035        -126.742         -63.2613         74.5087         -63.2597         74.4926      -0.00826093         150.491
0.511                  -0.228671        -127.188         -63.2469          71.805         -63.2452         71.7879      -0.00834379         150.425
0.512                  -0.237106        -127.636         -63.2179         69.0711         -63.2159         69.0532      -0.00842705         150.359
0.513                  -0.245661        -128.086         -63.1736         66.3142         -63.1714         66.2956      -0.00851072         150.293
0.514                  -0.254338        -128.539          -63.114         63.5415         -63.1116         63.5226      -0.00859482         150.227
0.515                  -0.263144        -128.994          -63.039         60.7607         -63.0364         60.7415      -0.00867935          150.16
0.516                  -0.272083        -129.451         -62.9487         57.9792         -62.9459         57.9598      -0.00876432         150.094
0.517                  -0.281159         -129.91         -62.8431         55.2043         -62.8401          55.185      -0.00884974         150.028
0.518                  -0.290378        -130.372         -62.7228         52.4431         -62.7196         52.4239      -0.00893562         149.961
0.519                  -0.299745        -130.836         -62.5881         49.7019         -62.5848         49.6831      -0.00902198         149.894
0.52                   -0.309265        -131.302         -62.4396         46.9869         -62.4362         46.9685      -0.00910882         149.828
0.521                  -0.318945        -131.771         -62.2781         44.3033         -62.2746         44.2855      -0.00919616         149.761
0.522                  -0.328789        -132.242         -62.1042         41.6557         -62.1006         41.6385        -0.009284         149.694
0.523                  -0.338805        -132.716         -61.9187          39.048          -61.915         39.0315      -0.00937235         149.627
0.524                  -0.348997        -133.192         -61.7225         36.4832         -61.7188         36.4675      -0.00946124          149.56
0.525                  -0.359374        -133.671         -61.5164         33.9638         -61.5127         33.9488      -0.00955066         149.493
0.526                  -0.369941        -134.152         -61.3013         31.4912         -61.2976         31.4771      -0.00964064         149.426
0.527                  -0.380705        -134.636         -61.0781         29.0665         -61.0743         29.0532      -0.00973118         149.358
0.528                  -0.391674        -135.123         -60.8474         26.6899         -60.8437         26.6775       -0.0098223         149.291
0.529                  -0.402854        -135.612         -60.6102         24.3613         -60.6066         24.3497      -0.00991401         149.223
0.53                   -0.414254        -136.104         -60.3671         22.0799         -60.3636         22.0691       -0.0100063         149.156
0.531                   -0.42588        -136.599         -60.1189         19.8445         -60.1155         19.8346       -0.0100992         149.088
0.532                  -0.437741        -137.097         -59.8662         17.6536         -59.8629         17.6445       -0.0101928          149.02
0.533                  -0.449845        -137.597         -59.6097         15.5055         -59.6065         15.4971        -0.010287         148.952
0.534                  -0.462201          -138.1         -59.3498         13.3978         -59.3468         13.3902       -0.0103818         148.884
0.535                  -0.474816        -138.606         -59.0872         11.3285         -59.0843         11.3216       -0.0104774         148.816
0.536                    -0.4877        -139.115         -58.8222         9.29496         -58.8195         9.28874       -0.0105736         148.748
0.537                  -0.500862        -139.627         -58.5553         7.29465         -58.5529         7.28909       -0.0106705          148.68
0.538                  -0.514311        -140.142          -58.287         5.32488         -58.2847         5.31996       -0.0107681         148.611
0.539                  -0.528057         -140.66         -58.0175         3.38291         -58.0154         3.37861       -0.0108664         148.543
0.54                   -0.542108        -141.181         -57.7471         1.46596         -57.7452         1.46225       -0.0109655         148.474
0.541                  -0.556476        -141.705         -57.4762       -0.428802         -57.4745       -0.431933       -0.0110654         148.406
0.542                  -0.571171        -142.231          -57.205        -2.30418         -57.2036        -2.30675        -0.011166         148.337
0.543                  -0.586202        -142.761         -56.9338        -4.16301         -56.9325        -4.16502       -0.0112675         148.268
0.544                   -0.60158        -143.294         -56.6627        -6.00808         -56.6617        -6.00954       -0.0113697         148.199
0.545                  -0.617316         -143.83          -56.392        -7.84219         -56.3913        -7.84311       -0.0114728          148.13
0.546                  -0.633422         -144.37         -56.1219         -9.6681         -56.1214        -9.66846       -0.0115767          148.06
0.547                  -0.649907        -144.912         -55.8525        -11.4885         -55.8523        -11.4883       -0.0116814         147.991
0.548                  -0.666785        -145.457         -55.5841        -13.3062         -55.5841        -13.3054       -0.0117871         147.922
0.549                  -0.684066        -146.006         -55.3168        -15.1238          -55.317        -15.1224       -0.0118937         147.852
0.55                   -0.701763        -146.558         -55.0507        -16.9439         -55.0512        -16.9419       -0.0120011         147.782
0.551                  -0.719886        -147.113         -54.7861        -18.7691         -54.7868        -18.7665       -0.0121095         147.713
0.552                   -0.73845        -147.671         -54.5231         -20.602         -54.5241        -20.5987       -0.0122189         147.643
0.553                  -0.757465        -148.232         -54.2619         -22.445         -54.2631        -22.4411       -0.0123292         147.573
0.554                  -0.776946        -148.796         -54.0027        -24.3006         -54.0042         -24.296       -0.0124406         147.503
0.555                  -0.796904        -149.364         -53.7457        -26.1713         -53.7474        -26.1659       -0.0125529         147.432
0.556                  -0.817352        -149.935          -53.491        -28.0593          -53.493        -28.0531       -0.0126663         147.362
0.557                  -0.838304        -150.509         -53.2391        -29.9669         -53.2412        -29.9598       -0.0127808         147.291
0.558                  -0.859774        -151.086           -52.99        -31.8963         -52.9924        -31.8883       -0.0128963         147.221
0.559                  -0.881774        -151.666          -52.744        -33.8496         -52.7466        -33.8407       -0.0130129          147.15
0.56                   -0.904317         -152.25         -52.5015        -35.8288         -52.5043        -35.8189       -0.0131307         147.079
0.561                  -0.927419        -152.836         -52.2627        -37.8358         -52.2657        -37.8248       -0.0132496         147.008
0.562                  -0.951093        -153.426          -52.028        -39.8722         -52.0312        -39.8601       -0.0133697         146.937
0.563                  -0.975352        -154.019         -51.7977        -41.9398         -51.8011        -41.9266        -0.013491         146.866
0.564                   -1.00021        -154.615         -51.5722        -44.0399         -51.5758        -44.0254       -0.0136135         146.794
0.565                   -1.02568        -155.214         -51.3519        -46.1737         -51.3556         -46.158       -0.0137372         146.723
0.566                   -1.05179        -155.816         -51.1372        -48.3422         -51.1411        -48.3253       -0.0138622         146.651
0.567                   -1.07853        -156.421         -50.9285        -50.5462         -50.9326        -50.5279       -0.0139885         146.579
0.568                   -1.10593        -157.029         -50.7264        -52.7862         -50.7306        -52.7665       -0.0141162         146.507
0.569                     -1.134         -157.64         -50.5313        -55.0622         -50.5355        -55.0413       -0.0142452         146.435
0.57                    -1.16276        -158.254         -50.3437        -57.3743          -50.348        -57.3519       -0.0143755         146.363
0.571                   -1.19222        -158.871         -50.1641        -59.7218         -50.1684         -59.698       -0.0145073         146.291
0.572                   -1.22239         -159.49         -49.9929        -62.1038         -49.9972        -62.0788       -0.0146405         146.218
0.573                    -1.2533        -160.113         -49.8307        -64.5193          -49.835        -64.4929       -0.0147751         146.146
0.574                   -1.28494        -160.738         -49.6779        -66.9664         -49.6822        -66.9389       -0.0149113         146.073
0.575                   -1.31735        -161.366         -49.5351        -69.4433         -49.5393        -69.4146       -0.0150489             146
0.576                   -1.35052        -161.996         -49.4026        -71.9475         -49.4067        -71.9177       -0.0151882         145.927
0.577                   -1.38449        -162.629         -49.2808        -74.4763         -49.2848        -74.4455        -0.015329         145.854
0.578                   -1.41925        -163.264         -49.1702        -77.0264         -49.1741        -76.9948       -0.0154714          145.78
0.579                   -1.45483        -163.902         -49.0709        -79.5947         -49.0746        -79.5623       -0.0156154         145.707
0.58                    -1.49124        -164.543         -48.9833        -82.1772         -48.9868        -82.1444       -0.0157612         145.633
0.581                   -1.52849        -165.185         -48.9075        -84.7702         -48.9109         -84.737       -0.0159086         145.559
0.582                   -1.56659         -165.83         -48.8437        -87.3697         -48.8468        -87.3363       -0.0160578         145.485
0.583                   -1.60557        -166.477         -48.7918        -89.9714         -48.7947        -89.9381       -0.0162088         145.411
0.584                   -1.64542        -167.127         -48.7519        -92.5713         -48.7546        -92.5382       -0.0163615         145.337
0.585                   -1.68617        -167.778         -48.7238        -95.1652         -48.7263        -95.1326       -0.0165162         145.262
0.586                   -1.72783        -168.431         -48.7075        -97.7491         -48.7097        -97.7171       -0.0166727         145.188
0.587                   -1.77041        -169.086         -48.7025        -100.319         -48.7045        -100.288       -0.0168311         145.113
0.588                   -1.81392        -169.742         -48.7088        -102.872         -48.7105        -102.842       -0.0169915         145.038
0.589                   -1.85837        -170.401         -48.7258        -105.404         -48.7273        -105.375       -0.0171539         144.963
0.59                    -1.90378        -171.061         -48.7532        -107.912         -48.7545        -107.885       -0.0173184         144.888
0.591                   -1.95016        -171.722         -48.7906        -110.393         -48.7917        -110.368       -0.0174849         144.812
0.592                   -1.99751        -172.385         -48.8374        -112.846         -48.8383        -112.823       -0.0176535         144.736
0.593                   -2.04585        -173.049         -48.8932        -115.268          -48.894        -115.247       -0.0178243         144.661
0.594                   -2.09519        -173.714         -48.9575        -117.658         -48.9581        -117.639       -0.0179973         144.585
0.595                   -2.14553         -174.38         -49.0297        -120.015         -49.0301        -119.998       -0.0181726         144.508
0.596                   -2.19689        -175.047         -49.1093        -122.337         -49.1096        -122.323       -0.0183502         144.432
0.597                   -2.24928        -175.714         -49.1958        -124.625          -49.196        -124.613       -0.0185301         144.355
0.598                   -2.30269        -176.383         -49.2886        -126.877         -49.2887        -126.868       -0.0187124         144.279
0.599                   -2.35715        -177.052         -49.3873        -129.095         -49.3874        -129.089       -0.0188971         144.202
0.6                     -2.41266        -177.722         -49.4914        -131.279         -49.4914        -131.276       -0.0190843         144.125
0.601                   -2.46922        -178.391         -49.6004         -133.43         -49.6004         -133.43       -0.0192741         144.047
0.602                   -2.52684        -179.062         -49.7139        -135.547         -49.7139         -135.55       -0.0194664          143.97
0.603                   -2.58553        -179.732         -49.8314        -137.634         -49.8314         -137.64       -0.0196614         143.892
0.604                    -2.6453         179.598         -49.9526         -139.69         -49.9527        -139.699        -0.019859         143.814
0.605                   -2.70614         178.928         -50.0771        -141.718         -50.0772         -141.73       -0.0200594         143.736
0.606                   -2.76806         178.259         -50.2045        -143.718         -50.2046        -143.734       -0.0202626         143.658
0.607                   -2.83107         177.589         -50.3345        -145.693         -50.3347        -145.712       -0.0204686         143.579
0.608                   -2.89517         176.921         -50.4668        -147.645         -50.4671        -147.667       -0.0206776         143.501
0.609                   -2.96035         176.253         -50.6012        -149.574         -50.6016          -149.6       -0.0208895         143.422
0.61                    -3.02664         175.585         -50.7373        -151.484         -50.7378        -151.513       -0.0211044         143.342
0.611                   -3.09401         174.919         -50.8749        -153.376         -50.8756        -153.408       -0.0213224         143.263
0.612                   -3.16249         174.254         -51.0138        -155.252         -51.0146        -155.288       -0.0215436         143.183
0.613                   -3.23206          173.59         -51.1538        -157.115         -51.1548        -157.153       -0.0217679         143.104
0.614                   -3.30273         172.927         -51.2948        -158.965         -51.2958        -159.007       -0.0219955         143.024
0.615                   -3.37449         172.266         -51.4364        -160.806         -51.4376        -160.852       -0.0222265         142.943
0.616                   -3.44735         171.607         -51.5785        -162.639         -51.5799        -162.688       -0.0224609         142.863
0.617                   -3.52131         170.949          -51.721        -164.467         -51.7226         -164.52       -0.0226987         142.782
0.618                   -3.59635         170.293         -51.8637        -166.292         -51.8655        -166.347         -0.02294         142.701
0.619                   -3.67249         169.639         -52.0065        -168.115         -52.0084        -168.174        -0.023185          142.62
0.62                    -3.74972         168.987         -52.1492        -169.939         -52.1512        -170.001       -0.0234337         142.538
0.621                   -3.82802         168.337         -52.2916        -171.766         -52.2938        -171.832       -0.0236861         142.457
0.622                   -3.90741          167.69         -52.4336        -173.598          -52.436        -173.667       -0.0239423         142.375
0.623                   -3.98788         167.045          -52.575        -175.437         -52.5776         -175.51       -0.0242024         142.293
0.624                   -4.06941         166.403         -52.7158        -177.285         -52.7185        -177.362       -0.0244665          142.21
0.625                   -4.15201         165.763         -52.8557        -179.145         -52.8586        -179.225       -0.0247347         142.127
0.626                   -4.23567         165.126         -52.9946         178.982         -52.9976         178.898        -0.025007         142.045
0.627                   -4.32039         164.493         -53.1322         177.094         -53.1354         177.006       -0.0252835         141.961
0.628                   -4.40615         163.862         -53.2685         175.188         -53.2718         175.097       -0.0255644         141.878
0.629                   -4.49296         163.235         -53.4032         173.263         -53.4065         173.168       -0.0258496         141.794
0.63                     -4.5808         162.611         -53.5361         171.316         -53.5395         171.218       -0.0261393          141.71
0.631                   -4.66967          161.99         -53.6669         169.347         -53.6705         169.244       -0.0264336         141.626
0.632                   -4.75955         161.373         -53.7955         167.352         -53.7991         167.246       -0.0267326         141.541
0.633                   -4.85045          160.76         -53.9216          165.33         -53.9253          165.22       -0.0270363         141.456
0.634                   -4.94236          160.15         -54.0449          163.28         -54.0486         163.166       -0.0273449         141.371
0.635                   -5.03526         159.545         -54.1651         161.199         -54.1688         161.081       -0.0276585         141.286
0.636                   -5.12914         158.943         -54.2819         159.086         -54.2856         158.965       -0.0279771           141.2
0.637                   -5.22401         158.345          -54.395         156.941         -54.3986         156.816       -0.0283008         141.114
0.638                   -5.31984         157.752         -54.5039         154.761         -54.5074         154.632       -0.0286298         141.027
0.639                   -5.41664         157.162         -54.6084         152.545         -54.6118         152.413       -0.0289642         140.941
0.64                    -5.51438         156.578         -54.7079         150.293         -54.7112         150.157       -0.0293041         140.854
0.641                   -5.61307         155.997         -54.8022         148.004         -54.8053         147.865       -0.0296496         140.766
0.642                   -5.71269         155.422         -54.8907         145.678         -54.8936         145.535       -0.0300008         140.679
0.643                   -5.81323          154.85          -54.973         143.313         -54.9757         143.167       -0.0303578         140.591
0.644                   -5.91469         154.284         -55.0487         140.911         -55.0511         140.762       -0.0307207         140.503
0.645                   -6.01705         153.723         -55.1173         138.472         -55.1194         138.319       -0.0310897         140.414
0.646                    -6.1203         153.166         -55.1782         135.996           -55.18         135.841        -0.031465         140.325
0.647                   -6.22444         152.615         -55.2311         133.485         -55.2325         133.327       -0.0318465         140.236
0.648                   -6.32945         152.068         -55.2754         130.939         -55.2764         130.779       -0.0322345         140.146
0.649                   -6.43532         151.527         -55.3108         128.362         -55.3114         128.199        -0.032629         140.056
0.65                    -6.54205         150.991         -55.3367         125.753         -55.3368         125.588       -0.0330303         139.966
0.651                   -6.64962         150.461         -55.3528         123.118         -55.3525         122.951       -0.0334385         139.875
0.652                   -6.75803         149.935         -55.3588         120.457         -55.3579         120.288       -0.0338537         139.784
0.653                   -6.86726         149.416         -55.3542         117.774         -55.3529         117.604        -0.034276         139.693
0.654                   -6.97731         148.902         -55.3389         115.072          -55.337         114.902       -0.0347056         139.601
0.655                   -7.08816         148.394         -55.3126         112.355         -55.3102         112.185       -0.0351427         139.509
0.656                   -7.19981         147.891         -55.2752         109.627         -55.2722         109.457       -0.0355874         139.416
0.657                   -7.31224         147.395         -55.2265         106.892          -55.223         106.722       -0.0360399         139.323
0.658                   -7.42545         146.904         -55.1666         104.153         -55.1625         103.984       -0.0365003          139.23
0.659                   -7.53942         146.419         -55.0954         101.415         -55.0909         101.246       -0.0369689         139.136
0.66                    -7.65416         145.941         -55.0132         98.6805         -55.0081         98.5139       -0.0374457         139.042
0.661                   -7.76964         145.468           -54.92         95.9547         -54.9144         95.7898        -0.037931         138.947
0.662                   -7.88585         145.002         -54.8162         93.2407         -54.8101         93.0778       -0.0384249         138.852
0.663                    -8.0028         144.542         -54.7019         90.5421         -54.6954         90.3815       -0.0389277         138.757
0.664                   -8.12047         144.089         -54.5775         87.8619         -54.5706         87.7039       -0.0394395         138.661
0.665                   -8.23885         143.642         -54.4435         85.2032         -54.4362         85.0479       -0.0399605         138.564
0.666                   -8.35793         143.202         -54.3002         82.5685         -54.2926         82.4162       -0.0404909         138.468
0.667                    -8.4777         142.769          -54.148         79.9601         -54.1402         79.8109       -0.0410309          138.37
0.668                   -8.59816         142.342         -53.9876           77.38         -53.9794         77.2341       -0.0415808         138.273
0.669                   -8.71929         141.923         -53.8193         74.8297         -53.8109         74.6872       -0.0421408         138.175
0.67                    -8.84109          141.51         -53.6436         72.3106          -53.635         72.1716        -0.042711         138.076
0.671                   -8.96354         141.104         -53.4611         69.8236         -53.4524         69.6881       -0.0432917         137.977
0.672                   -9.08664         140.706         -53.2722         67.3693         -53.2634         67.2374       -0.0438832         137.877
0.673                   -9.21038         140.315         -53.0775          64.948         -53.0685         64.8198       -0.0444856         137.777
0.674                   -9.33475         139.931         -52.8773           62.56         -52.8684         62.4354       -0.0450992         137.676
0.675                   -9.45974         139.555         -52.6723          60.205         -52.6633         60.0841       -0.0457243         137.575
0.676                   -9.58534         139.186         -52.4628         57.8827         -52.4538         57.7654       -0.0463612         137.474
0.677                   -9.71154         138.826         -52.2492         55.5925         -52.2403         55.4787         -0.04701         137.371
0.678                   -9.83833         138.473          -52.032         53.3336         -52.0231         53.2234       -0.0476711         137.269
0.679                    -9.9657         138.128         -51.8115         51.1053         -51.8027         50.9985       -0.0483448         137.165
0.68                    -10.0936         137.791         -51.5882         48.9065         -51.5795          48.803       -0.0490313         137.061
0.681                   -10.2221         137.463         -51.3622          46.736         -51.3537         46.6359       -0.0497309         136.957
0.682                   -10.3512         137.143         -51.1341         44.5928         -51.1257          44.496        -0.050444         136.852
0.683                   -10.4808         136.832          -50.904         42.4756         -50.8957         42.3819       -0.0511708         136.746
0.684                   -10.6109         136.529         -50.6723         40.3831         -50.6641         40.2925       -0.0519116          136.64
0.685                   -10.7415         136.236         -50.4391          38.314         -50.4312         38.2264       -0.0526669         136.533
0.686                   -10.8726         135.951         -50.2048         36.2668          -50.197         36.1822       -0.0534369         136.426
0.687                   -11.0043         135.676         -49.9695         34.2404         -49.9619         34.1586        -0.054222         136.318
0.688                   -11.1363          135.41         -49.7334         32.2332         -49.7261         32.1542       -0.0550225         136.209
0.689                   -11.2689         135.154         -49.4968          30.244         -49.4897         30.1677       -0.0558389           136.1
0.69                    -11.4018         134.908         -49.2598         28.2713         -49.2529         28.1977       -0.0566714          135.99
0.691                   -11.5352         134.672         -49.0226          26.314         -49.0158         26.2429       -0.0575206         135.879
0.692                    -11.669         134.446         -48.7852         24.3706         -48.7787          24.302       -0.0583867         135.768
0.693                   -11.8032          134.23         -48.5479           22.44         -48.5417         22.3737       -0.0592702         135.656
0.694                   -11.9378         134.026         -48.3108         20.5207         -48.3048         20.4568       -0.0601715         135.543
0.695                   -12.0726         133.832          -48.074         18.6118         -48.0681         18.5502       -0.0610911          135.43
0.696                   -12.2078         133.649         -47.8375         16.7119         -47.8319         16.6525       -0.0620294         135.315
0.697                   -12.3433         133.478         -47.6016           14.82         -47.5962         14.7628       -0.0629869           135.2