! TOUCHSTONE file generated by CST MICROWAVE STUDIO
! Date and time: Wed Oct 28 19:18:29 2020
! Project name: Scenario_1_Circular_Tissue_out_of_Line.cst
! Parameters = {dy1=104.866; L_HA=400; MT=2.54; Rad_Dielectric=30; Rad_Lower=7.3; Rad_Upper=30; a_HA=580; a_WG=246; b_HA=500; b_WG=121; c_HA=0; c_WG=187; d_feed=85; dx1=693; h_feed=15; h_lower=18; h_upper=40}
! Header version: 2018
! Port assignment regex: !\s*Touchstone port\s*([0-9]+)\s*=\s*(CST MWS port|CST DS port)\s*([0-9]+|Zmin|Zmax)\s*\(\"(.*)\"\)(\s*mode\s*([0-9]+))?.*
! Touchstone port assignment:
! Touchstone port 1 = CST MWS port 1 ("")
! Touchstone port 2 = CST MWS port 2 ("")
# GHz S DB R 50
0.5                     -0.15407        -122.258         -62.1257        -168.757         -62.1257        -168.757      -0.00768887         151.138
0.501                  -0.158452         -122.69         -61.9888        -170.604          -61.989        -170.603      -0.00775177         151.073
0.502                   -0.16294        -123.125         -61.8524        -172.448         -61.8527        -172.447        -0.007815         151.007
0.503                  -0.167539        -123.562         -61.7163         -174.29         -61.7167        -174.288      -0.00787855         150.942
0.504                  -0.172254        -124.002         -61.5806        -176.129         -61.5811        -176.127      -0.00794245         150.877
0.505                  -0.177092        -124.444          -61.445        -177.966         -61.4456        -177.963       -0.0080067         150.811
0.506                  -0.182059        -124.889         -61.3097          -179.8         -61.3103        -179.797       -0.0080713         150.746
0.507                  -0.187162        -125.336         -61.1743         178.369         -61.1751         178.373      -0.00813628          150.68
0.508                  -0.192408        -125.787          -61.039         176.542         -61.0398         176.545      -0.00820165         150.614
0.509                  -0.197804         -126.24         -60.9036         174.717         -60.9044         174.721       -0.0082674         150.548
0.51                   -0.203358        -126.695          -60.768         172.895         -60.7688         172.899      -0.00833357         150.483
0.511                  -0.209078        -127.154         -60.6322         171.076          -60.633          171.08      -0.00840015         150.417
0.512                  -0.214973        -127.616          -60.496         169.259         -60.4968         169.263      -0.00846717         150.351
0.513                  -0.221052         -128.08         -60.3594         167.446         -60.3602          167.45      -0.00853464         150.285
0.514                  -0.227325        -128.548         -60.2224         165.634         -60.2232         165.638      -0.00860257         150.218
0.515                    -0.2338        -129.018         -60.0848         163.825         -60.0856         163.829      -0.00867098         150.152
0.516                  -0.240489        -129.491         -59.9466         162.017         -59.9474         162.021      -0.00873989         150.086
0.517                  -0.247402        -129.968         -59.8077         160.211         -59.8085         160.215       -0.0088093         150.019
0.518                  -0.254551        -130.447          -59.668         158.406         -59.6688          158.41      -0.00887925         149.953
0.519                  -0.261948         -130.93         -59.5276         156.602         -59.5284         156.606      -0.00894974         149.886
0.52                   -0.269604        -131.416         -59.3863         154.799         -59.3871         154.802      -0.00902081         149.819
0.521                  -0.277532        -131.905         -59.2441         152.995         -59.2449         152.997      -0.00909246         149.753
0.522                  -0.285747        -132.397          -59.101          151.19         -59.1018         151.193      -0.00916472         149.686
0.523                  -0.294261        -132.892          -58.957         149.384         -58.9578         149.387      -0.00923762         149.619
0.524                  -0.303089        -133.391         -58.8119         147.577         -58.8127         147.579      -0.00931118         149.552
0.525                  -0.312246        -133.893         -58.6658         145.768         -58.6666          145.77      -0.00938541         149.485
0.526                  -0.321748        -134.398         -58.5186         143.956         -58.5195         143.958      -0.00946036         149.417
0.527                   -0.33161        -134.906         -58.3704          142.14         -58.3713         142.142      -0.00953604          149.35
0.528                  -0.341849        -135.417         -58.2212         140.321          -58.222         140.323      -0.00961248         149.283
0.529                  -0.352481        -135.932         -58.0708         138.498         -58.0717         138.499      -0.00968972         149.215
0.53                   -0.363525         -136.45         -57.9194         136.669         -57.9202         136.671      -0.00976778         149.147
0.531                  -0.374997        -136.971         -57.7669         134.835         -57.7678         134.837       -0.0098467          149.08
0.532                  -0.386917        -137.496         -57.6134         132.995         -57.6143         132.996      -0.00992652         149.012
0.533                  -0.399302        -138.023         -57.4589         131.148         -57.4597         131.149       -0.0100073         148.944
0.534                  -0.412171        -138.554         -57.3033         129.293         -57.3042         129.295        -0.010089         148.876
0.535                  -0.425543        -139.088         -57.1468         127.431         -57.1477         127.432       -0.0101717         148.808
0.536                  -0.439437        -139.625         -56.9894          125.56         -56.9903         125.561       -0.0102554          148.74
0.537                  -0.453873        -140.165         -56.8311          123.68          -56.832         123.681       -0.0103402         148.671
0.538                  -0.468869        -140.707          -56.672          121.79         -56.6729         121.792       -0.0104262         148.603
0.539                  -0.484444        -141.253         -56.5122          119.89          -56.513         119.892       -0.0105133         148.534
0.54                   -0.500616        -141.801         -56.3516         117.979         -56.3525         117.981       -0.0106016         148.466
0.541                  -0.517404        -142.351         -56.1905         116.057         -56.1913         116.059       -0.0106912         148.397
0.542                  -0.534824        -142.905         -56.0288         114.123         -56.0295         114.125        -0.010782         148.328
0.543                  -0.552894         -143.46         -55.8666         112.177         -55.8673         112.179       -0.0108743         148.259
0.544                  -0.571629        -144.018          -55.704         110.218         -55.7048          110.22       -0.0109679          148.19
0.545                  -0.591043        -144.578         -55.5412         108.247         -55.5419         108.249        -0.011063         148.121
0.546                   -0.61115         -145.14         -55.3782         106.261         -55.3789         106.264       -0.0111596         148.051
0.547                  -0.631961        -145.703         -55.2151         104.263         -55.2157         104.265       -0.0112577         147.982
0.548                  -0.653484        -146.268         -55.0521          102.25         -55.0527         102.252       -0.0113575         147.912
0.549                  -0.675729        -146.834         -54.8892         100.223         -54.8897         100.225       -0.0114589         147.843
0.55                   -0.698699        -147.402         -54.7266          98.181         -54.7271         98.1831        -0.011562         147.773
0.551                  -0.722397         -147.97         -54.5644         96.1249         -54.5648          96.127       -0.0116669         147.703
0.552                  -0.746823        -148.539         -54.4026         94.0541          -54.403         94.0561       -0.0117736         147.633
0.553                  -0.771973        -149.109         -54.2416         91.9686         -54.2419         91.9705       -0.0118822         147.563
0.554                  -0.797841        -149.679         -54.0813         89.8684         -54.0816         89.8702       -0.0119927         147.493
0.555                  -0.824416        -150.248         -53.9219         87.7537         -53.9221         87.7554       -0.0121051         147.423
0.556                  -0.851684        -150.818         -53.7635         85.6246         -53.7637         85.6261       -0.0122196         147.352
0.557                  -0.879629        -151.387         -53.6063         83.4813         -53.6065         83.4826        -0.012336         147.281
0.558                  -0.908228        -151.956         -53.4504          81.324         -53.4505         81.3251       -0.0124546         147.211
0.559                  -0.937456        -152.524         -53.2958         79.1531         -53.2959          79.154       -0.0125753          147.14
0.56                   -0.967284         -153.09         -53.1429         76.9691         -53.1429         76.9696       -0.0126982         147.069
0.561                  -0.997679        -153.655         -52.9916         74.7723         -52.9916         74.7725       -0.0128233         146.998
0.562                    -1.0286        -154.219          -52.842         72.5633          -52.842         72.5632       -0.0129506         146.927
0.563                   -1.06002        -154.782         -52.6944         70.3427         -52.6943         70.3423       -0.0130801         146.855
0.564                   -1.09188        -155.343         -52.5487         68.1111         -52.5486         68.1104       -0.0132119         146.784
0.565                   -1.12413        -155.902         -52.4051         65.8692          -52.405         65.8682        -0.013346         146.712
0.566                   -1.15674        -156.459         -52.2637         63.6178         -52.2636         63.6165       -0.0134823         146.641
0.567                   -1.18965        -157.014         -52.1246         61.3576         -52.1245          61.356       -0.0136209         146.569
0.568                    -1.2228        -157.567         -51.9878         59.0896         -51.9877         59.0876       -0.0137619         146.497
0.569                   -1.25614        -158.119         -51.8534         56.8145         -51.8533         56.8122       -0.0139051         146.425
0.57                    -1.28962        -158.669         -51.7214         54.5333         -51.7213         54.5307       -0.0140506         146.352
0.571                   -1.32319        -159.217         -51.5919         52.2469         -51.5919         52.2441       -0.0141983          146.28
0.572                   -1.35678        -159.764          -51.465         49.9563         -51.4649         49.9531       -0.0143483         146.207
0.573                   -1.39036         -160.31         -51.3406         47.6623         -51.3405          47.659       -0.0145005         146.135
0.574                   -1.42387        -160.855         -51.2187         45.3661         -51.2187         45.3625       -0.0146549         146.062
0.575                   -1.45726        -161.399         -51.0994         43.0684         -51.0994         43.0646       -0.0148114         145.989
0.576                    -1.4905        -161.943         -50.9827         40.7703         -50.9827         40.7664       -0.0149701         145.916
0.577                   -1.52354        -162.487         -50.8684         38.4728         -50.8684         38.4687       -0.0151309         145.843
0.578                   -1.55636        -163.031         -50.7566         36.1767         -50.7567         36.1724       -0.0152937         145.769
0.579                   -1.58892        -163.576         -50.6473         33.8828         -50.6474         33.8785       -0.0154586         145.696
0.58                    -1.62121        -164.122         -50.5403         31.5922         -50.5404         31.5878       -0.0156254         145.622
0.581                   -1.65321         -164.67         -50.4356         29.3055         -50.4358         29.3011       -0.0157942         145.548
0.582                    -1.6849         -165.22         -50.3332         27.0235         -50.3334         27.0191       -0.0159649         145.474
0.583                    -1.7163        -165.773          -50.233          24.747         -50.2332         24.7426       -0.0161374           145.4
0.584                   -1.74739        -166.329         -50.1348         22.4767          -50.135         22.4723       -0.0163118         145.326
0.585                   -1.77819        -166.888         -50.0386          20.213         -50.0388         20.2088        -0.016488         145.252
0.586                   -1.80872        -167.452         -49.9443         17.9567         -49.9445         17.9526       -0.0166659         145.177
0.587                   -1.83899         -168.02         -49.8517         15.7082          -49.852         15.7042       -0.0168456         145.102
0.588                   -1.86904        -168.593         -49.7609         13.4679         -49.7612          13.464        -0.017027         145.028
0.589                    -1.8989        -169.171         -49.6716         11.2363         -49.6719         11.2326       -0.0172101         144.953
0.59                    -1.92862        -169.756         -49.5837         9.01358         -49.5841         9.01006       -0.0173949         144.877
0.591                   -1.95822        -170.347         -49.4973         6.80012         -49.4976         6.79679       -0.0175814         144.802
0.592                   -1.98778        -170.944          -49.412         4.59609         -49.4124         4.59296       -0.0177695         144.726
0.593                   -2.01733        -171.548         -49.3279         2.40163         -49.3283         2.39873       -0.0179593         144.651
0.594                   -2.04693         -172.16         -49.2448        0.216863         -49.2452        0.214173       -0.0181508         144.575
0.595                   -2.07665         -172.78         -49.1627        -1.95818          -49.163        -1.96065       -0.0183439         144.499
0.596                   -2.10656        -173.408         -49.0813        -4.12351         -49.0817        -4.12575       -0.0185387         144.423
0.597                   -2.13671        -174.044         -49.0006        -6.27917          -49.001        -6.28119       -0.0187353         144.346
0.598                   -2.16719        -174.688         -48.9206        -8.42525         -48.9209        -8.42705       -0.0189336          144.27
0.599                   -2.19805        -175.342          -48.841        -10.5619         -48.8414        -10.5635       -0.0191336         144.193
0.6                     -2.22938        -176.004         -48.7619        -12.6893         -48.7622        -12.6907       -0.0193354         144.116
0.601                   -2.26126        -176.676         -48.6831        -14.8076         -48.6834        -14.8088       -0.0195391         144.039
0.602                   -2.29375        -177.357         -48.6046        -16.9172         -48.6049        -16.9182       -0.0197446         143.961
0.603                   -2.32695        -178.047         -48.5262        -19.0182         -48.5265         -19.019       -0.0199521         143.884
0.604                   -2.36092        -178.746         -48.4479         -21.111         -48.4481        -21.1116       -0.0201615         143.806
0.605                   -2.39575        -179.456         -48.3697        -23.1958         -48.3699        -23.1963        -0.020373         143.728
0.606                   -2.43153         179.826         -48.2914        -25.2731         -48.2916        -25.2735       -0.0205865          143.65
0.607                   -2.46833         179.097          -48.213        -27.3433         -48.2132        -27.3435       -0.0208022         143.572
0.608                   -2.50624         178.359         -48.1345        -29.4066         -48.1346        -29.4067       -0.0210201         143.493
0.609                   -2.54535         177.612         -48.0558        -31.4634         -48.0559        -31.4634       -0.0212402         143.414
0.61                    -2.58573         176.855         -47.9768        -33.5143         -47.9769        -33.5142       -0.0214627         143.335
0.611                   -2.62747         176.088         -47.8976        -35.5595         -47.8977        -35.5593       -0.0216876         143.256
0.612                   -2.67067         175.313         -47.8181        -37.5995         -47.8182        -37.5992        -0.021915         143.177
0.613                    -2.7154         174.528         -47.7383        -39.6347         -47.7383        -39.6344        -0.022145         143.097
0.614                   -2.76174         173.734         -47.6581        -41.6655         -47.6581        -41.6651       -0.0223776         143.017
0.615                    -2.8098         172.931         -47.5776        -43.6923         -47.5775        -43.6919       -0.0226129         142.937
0.616                   -2.85965          172.12         -47.4966        -45.7156         -47.4966        -45.7151       -0.0228511         142.857
0.617                   -2.91138           171.3         -47.4154        -47.7357         -47.4153        -47.7352       -0.0230922         142.776
0.618                   -2.96507         170.473         -47.3337         -49.753         -47.3336        -49.7525       -0.0233362         142.695
0.619                   -3.02083         169.637         -47.2516        -51.7679         -47.2515        -51.7674       -0.0235833         142.614
0.62                    -3.07872         168.794         -47.1692        -53.7808         -47.1691        -53.7804       -0.0238336         142.533
0.621                   -3.13884         167.944         -47.0864        -55.7921         -47.0863        -55.7916       -0.0240872         142.452
0.622                   -3.20128         167.087         -47.0032         -57.802         -47.0031        -57.8016       -0.0243441          142.37
0.623                   -3.26612         166.223         -46.9198         -59.811         -46.9196        -59.8105       -0.0246045         142.288
0.624                   -3.33344         165.354          -46.836        -61.8193         -46.8359        -61.8189       -0.0248684         142.206
0.625                   -3.40334         164.479         -46.7519        -63.8273         -46.7518        -63.8268        -0.025136         142.123
0.626                   -3.47589         163.599         -46.6676        -65.8351         -46.6675        -65.8346       -0.0254074          142.04
0.627                   -3.55117         162.715          -46.583        -67.8431         -46.5829        -67.8426       -0.0256826         141.957
0.628                   -3.62928         161.827         -46.4983        -69.8515         -46.4982         -69.851       -0.0259617         141.874
0.629                   -3.71027         160.936         -46.4134        -71.8605         -46.4133          -71.86       -0.0262449          141.79
0.63                    -3.79424         160.043         -46.3284        -73.8703         -46.3282        -73.8697       -0.0265323         141.707
0.631                   -3.88126         159.147         -46.2433         -75.881         -46.2432        -75.8804        -0.026824         141.622
0.632                   -3.97139         158.251         -46.1581        -77.8928          -46.158        -77.8922       -0.0271201         141.538
0.633                   -4.06471         157.354          -46.073        -79.9058         -46.0729        -79.9052       -0.0274206         141.453
0.634                   -4.16127         156.457         -45.9879        -81.9201         -45.9878        -81.9194       -0.0277258         141.368
0.635                   -4.26113         155.562         -45.9029        -83.9357         -45.9028         -83.935       -0.0280358         141.283
0.636                   -4.36435          154.67          -45.818        -85.9527         -45.8179        -85.9519       -0.0283505         141.197
0.637                   -4.47098         153.781         -45.7333        -87.9711         -45.7332        -87.9702       -0.0286703         141.112
0.638                   -4.58105         152.896         -45.6488        -89.9908         -45.6488        -89.9898       -0.0289951         141.025
0.639                   -4.69461         152.016         -45.5646        -92.0118         -45.5646        -92.0107       -0.0293251         140.939
0.64                    -4.81167         151.143         -45.4807        -94.0341         -45.4807        -94.0328       -0.0296605         140.852
0.641                   -4.93226         150.277         -45.3971        -96.0574         -45.3971        -96.0561       -0.0300013         140.765
0.642                   -5.05638          149.42          -45.314        -98.0817         -45.3139        -98.0803       -0.0303477         140.678
0.643                   -5.18403         148.573         -45.2312        -100.107         -45.2312        -100.105       -0.0306998          140.59
0.644                   -5.31521         147.737         -45.1489        -102.133         -45.1489        -102.131       -0.0310578         140.502
0.645                   -5.44989         146.913         -45.0671        -104.159         -45.0671        -104.157       -0.0314217         140.413
0.646                   -5.58803         146.104         -44.9858        -106.186         -44.9858        -106.184       -0.0317917         140.325
0.647                   -5.72959         145.309         -44.9051        -108.212         -44.9051         -108.21       -0.0321679         140.236
0.648                   -5.87451          144.53          -44.825        -110.239          -44.825        -110.236       -0.0325506         140.146
0.649                   -6.02271         143.769         -44.7454        -112.264         -44.7454        -112.262       -0.0329397         140.056
0.65                     -6.1741         143.027         -44.6665        -114.289         -44.6665        -114.287       -0.0333355         139.966
0.651                   -6.32857         142.306         -44.5882        -116.313         -44.5882        -116.311       -0.0337381         139.876
0.652                     -6.486         141.606         -44.5105        -118.336         -44.5105        -118.333       -0.0341476         139.785
0.653                   -6.64626         140.929         -44.4335        -120.357         -44.4335        -120.354       -0.0345642         139.694
0.654                   -6.80917         140.276         -44.3571        -122.375         -44.3571        -122.373        -0.034988         139.602
0.655                   -6.97458         139.648         -44.2814        -124.392         -44.2814        -124.389       -0.0354193          139.51
0.656                   -7.14228         139.047         -44.2063        -126.406         -44.2063        -126.402        -0.035858         139.418
0.657                   -7.31206         138.474         -44.1319        -128.416         -44.1319        -128.413       -0.0363045         139.325
0.658                    -7.4837         137.929         -44.0581        -130.423          -44.058         -130.42       -0.0367588         139.232
0.659                   -7.65696         137.415         -43.9849        -132.427         -43.9848        -132.424       -0.0372211         139.138
0.66                    -7.83156          136.93         -43.9122        -134.427         -43.9122        -134.423       -0.0376916         139.044
0.661                   -8.00723         136.477         -43.8401        -136.422         -43.8401        -136.419       -0.0381704          138.95
0.662                   -8.18368         136.055         -43.7686        -138.413         -43.7685        -138.409       -0.0386578         138.855
0.663                   -8.36061         135.666         -43.6975        -140.399         -43.6974        -140.395       -0.0391538          138.76
0.664                   -8.53768         135.308         -43.6269        -142.379         -43.6268        -142.376       -0.0396586         138.664
0.665                   -8.71459         134.984         -43.5567        -144.355         -43.5566        -144.351       -0.0401725         138.568
0.666                   -8.89099         134.691         -43.4869        -146.324         -43.4868        -146.321       -0.0406956         138.471
0.667                   -9.06655         134.431         -43.4174        -148.288         -43.4173        -148.285        -0.041228         138.374
0.668                   -9.24094         134.202         -43.3482        -150.246         -43.3481        -150.243       -0.0417701         138.277
0.669                   -9.41381         134.004         -43.2792        -152.198         -43.2791        -152.194       -0.0423219         138.179
0.67                    -9.58484         133.836         -43.2104        -154.143         -43.2103         -154.14       -0.0428836          138.08
0.671                   -9.75371         133.696         -43.1418        -156.082         -43.1416        -156.079       -0.0434555         137.982
0.672                   -9.92012         133.583         -43.0732        -158.014          -43.073        -158.011       -0.0440378         137.882
0.673                   -10.0838         133.496         -43.0046        -159.939         -43.0044        -159.936       -0.0446306         137.782
0.674                   -10.2445         133.432          -42.936        -161.858         -42.9358        -161.855       -0.0452343         137.682
0.675                   -10.4019         133.391         -42.8673         -163.77         -42.8671        -163.767       -0.0458489         137.581
0.676                   -10.5559         133.368         -42.7984        -165.675         -42.7982        -165.673       -0.0464748          137.48
0.677                   -10.7063         133.363         -42.7293        -167.574         -42.7291        -167.571       -0.0471121         137.378
0.678                   -10.8529         133.373           -42.66        -169.465         -42.6598        -169.463       -0.0477612         137.275
0.679                   -10.9958         133.395         -42.5903         -171.35         -42.5901        -171.348       -0.0484222         137.172
0.68                    -11.1347         133.427         -42.5202        -173.229           -42.52        -173.227       -0.0490955         137.069
0.681                   -11.2698         133.466         -42.4497        -175.101         -42.4496        -175.099       -0.0497812         136.965
0.682                    -11.401         133.509         -42.3787        -176.967         -42.3786        -176.965       -0.0504797          136.86
0.683                   -11.5285         133.554         -42.3072        -178.826         -42.3071        -178.824       -0.0511912         136.755
0.684                   -11.6524         133.599         -42.2351         179.321         -42.2349         179.322       -0.0519161         136.649
0.685                   -11.7727         133.641         -42.1623         177.473         -42.1622         177.474       -0.0526546         136.542
0.686                   -11.8898         133.678         -42.0889         175.631         -42.0887         175.632        -0.053407         136.435
0.687                   -12.0038         133.707         -42.0147         173.795         -42.0145         173.796       -0.0541737         136.327
0.688                    -12.115         133.728         -41.9397         171.963         -41.9396         171.964        -0.054955         136.219
0.689                   -12.2238         133.738         -41.8639         170.137         -41.8638         170.138       -0.0557512          136.11
0.69                    -12.3303         133.735         -41.7872         168.315         -41.7872         168.316       -0.0565627             136
0.691                    -12.435          133.72         -41.7097         166.498         -41.7096         166.498       -0.0573899          135.89
0.692                   -12.5382          133.69         -41.6312         164.684         -41.6312         164.685       -0.0582331         135.779
0.693                   -12.6403         133.645         -41.5518         162.875         -41.5517         162.876       -0.0590928         135.667
0.694                   -12.7416         133.585         -41.4714         161.069         -41.4713          161.07       -0.0599692         135.555
0.695                   -12.8425         133.509         -41.3899         159.266         -41.3899         159.267        -0.060863         135.442
0.696                   -12.9434         133.417         -41.3074         157.466         -41.3074         157.467       -0.0617743         135.328
0.697                   -13.0447          133.31         -41.2239         155.669         -41.2239         155.669       -0.0627038         135.214