! TOUCHSTONE file generated by CST MICROWAVE STUDIO
! Date and time: Wed Oct 28 19:38:44 2020
! Project name: Scenario_1_Circular_Tissue_out_of_Line_v2.cst
! Parameters = {dy1=121.1; L_HA=400; MT=2.54; Rad_Dielectric=30; Rad_Lower=7.3; Rad_Upper=30; a_HA=580; a_WG=246; b_HA=500; b_WG=121; c_HA=0; c_WG=187; d_feed=85; dx1=346; h_feed=15; h_lower=18; h_upper=40}
! Header version: 2018
! Port assignment regex: !\s*Touchstone port\s*([0-9]+)\s*=\s*(CST MWS port|CST DS port)\s*([0-9]+|Zmin|Zmax)\s*\(\"(.*)\"\)(\s*mode\s*([0-9]+))?.*
! Touchstone port assignment:
! Touchstone port 1 = CST MWS port 1 ("")
! Touchstone port 2 = CST MWS port 2 ("")
# GHz S DB R 50
0.5                    -0.170366        -122.275         -58.6672         24.7917         -58.6676         24.7938      -0.00797036         151.136
0.501                  -0.175221        -122.702         -58.5344         23.2355         -58.5347         23.2363      -0.00804232         151.071
0.502                  -0.180152        -123.131         -58.4003         21.6827         -58.4005         21.6827      -0.00811443         151.006
0.503                  -0.185163        -123.563          -58.265          20.133         -58.2651         20.1329      -0.00818669         150.941
0.504                  -0.190255        -123.996         -58.1283         18.5863         -58.1284         18.5865       -0.0082591         150.875
0.505                  -0.195433        -124.432         -57.9905         17.0421         -57.9906         17.0433      -0.00833166          150.81
0.506                  -0.200699        -124.871         -57.8515         15.5003         -57.8517         15.5029      -0.00840438         150.744
0.507                  -0.206057        -125.311         -57.7114         13.9604         -57.7117         13.9651      -0.00847726         150.679
0.508                  -0.211512        -125.754         -57.5702         12.4221         -57.5707         12.4296      -0.00855029         150.613
0.509                  -0.217066          -126.2          -57.428          10.885         -57.4286         10.8959      -0.00862349         150.547
0.51                   -0.222724        -126.648         -57.2848         9.34879         -57.2857          9.3638      -0.00869687         150.481
0.511                   -0.22849        -127.098         -57.1406         7.81299         -57.1418         7.83279      -0.00877041         150.416
0.512                  -0.234369        -127.551         -56.9955         6.27717          -56.997          6.3025      -0.00884414          150.35
0.513                  -0.240366        -128.007         -56.8496         4.74086         -56.8514         4.77249      -0.00891805         150.283
0.514                  -0.246485        -128.465         -56.7028         3.20354          -56.705         3.24233      -0.00899216         150.217
0.515                  -0.252731        -128.926         -56.5552          1.6647         -56.5578         1.71152      -0.00906646         150.151
0.516                  -0.259111         -129.39         -56.4068        0.123755         -56.4099        0.179558      -0.00914096         150.085
0.517                   -0.26563        -129.856         -56.2577        -1.41989         -56.2613        -1.35409      -0.00921568         150.018
0.518                  -0.272294        -130.326          -56.108        -2.96688          -56.112        -2.88998      -0.00929062         149.952
0.519                  -0.279109        -130.798         -55.9577         -4.5179         -55.9621        -4.42874      -0.00936579         149.885
0.52                   -0.286082        -131.273         -55.8067         -6.0737         -55.8116        -5.97098       -0.0094412         149.819
0.521                   -0.29322        -131.751         -55.6553        -7.63506         -55.6606        -7.51741      -0.00951685         149.752
0.522                   -0.30053        -132.232         -55.5034        -9.20283         -55.5091        -9.06874      -0.00959277         149.685
0.523                   -0.30802        -132.716         -55.3511        -10.7779         -55.3572        -10.6258      -0.00966895         149.618
0.524                  -0.315698        -133.203         -55.1985        -12.3613         -55.2049        -12.1893      -0.00974542         149.551
0.525                  -0.323571        -133.693         -55.0457        -13.9541         -55.0522        -13.7603      -0.00982218         149.484
0.526                  -0.331649        -134.187         -54.8929        -15.5574         -54.8994        -15.3397      -0.00989925         149.417
0.527                   -0.33994        -134.683         -54.7401        -17.1725         -54.7464        -16.9285      -0.00997664          149.35
0.528                  -0.348455        -135.183         -54.5875        -18.8005         -54.5933         -18.528       -0.0100544         149.282
0.529                  -0.357203        -135.686         -54.4353        -20.4431         -54.4404        -20.1393       -0.0101324         149.215
0.53                   -0.366194        -136.193         -54.2837        -22.1016         -54.2877        -21.7637       -0.0102109         149.147
0.531                  -0.375439        -136.703         -54.1331        -23.7776         -54.1354        -23.4026       -0.0102897         149.079
0.532                   -0.38495        -137.216         -53.9838        -25.4726         -53.9838        -25.0577       -0.0103689         149.012
0.533                  -0.394737        -137.733         -53.8362        -27.1883         -53.8331        -26.7303       -0.0104486         148.944
0.534                  -0.404814        -138.254         -53.6908        -28.9262         -53.6836        -28.4224       -0.0105287         148.876
0.535                  -0.415192        -138.778         -53.5482        -30.6874         -53.5359        -30.1354       -0.0106093         148.808
0.536                  -0.425886        -139.305         -53.4092        -32.4731         -53.3903         -31.871       -0.0106903          148.74
0.537                  -0.436908        -139.836         -53.2748        -34.2835         -53.2475        -33.6308       -0.0107718         148.671
0.538                  -0.448274        -140.371         -53.1459        -36.1179         -53.1083        -35.4158       -0.0108539         148.603
0.539                  -0.459997         -140.91         -53.0238        -37.9744         -52.9735        -37.2268       -0.0109366         148.535
0.54                   -0.472093        -141.452           -52.91         -39.849         -52.8443        -39.0634       -0.0110198         148.466
0.541                  -0.484579        -141.998         -52.8058        -41.7348          -52.722         -40.924       -0.0111036         148.397
0.542                  -0.497471        -142.548         -52.7128        -43.6218         -52.6081         -42.805       -0.0111881         148.328
0.543                  -0.510785        -143.101         -52.6324        -45.4954         -52.5041        -44.6997       -0.0112732          148.26
0.544                   -0.52454        -143.659         -52.5654        -47.3364         -52.4118        -46.5979        -0.011359         148.191
0.545                  -0.538753         -144.22         -52.5121        -49.1211         -52.3327        -48.4844       -0.0114456         148.121
0.546                  -0.553445        -144.785         -52.4715        -50.8225          -52.268        -50.3386       -0.0115329         148.052
0.547                  -0.568633        -145.354         -52.4412        -52.4133          -52.218        -52.1344        -0.011621         147.983
0.548                  -0.584339        -145.927          -52.417        -53.8698         -52.1818        -53.8415         -0.01171         147.913
0.549                  -0.600582        -146.504         -52.3935        -55.1773         -52.1568        -55.4283       -0.0117998         147.844
0.55                   -0.617385        -147.084         -52.3642        -56.3344         -52.1384        -56.8678       -0.0118906         147.774
0.551                  -0.634768        -147.669         -52.3228        -57.3549         -52.1199        -58.1433       -0.0119822         147.704
0.552                  -0.652755        -148.257         -52.2642         -58.267         -52.0942        -59.2544       -0.0120749         147.634
0.553                  -0.671367        -148.849          -52.185        -59.1081         -52.0539        -60.2197       -0.0121686         147.564
0.554                  -0.690629        -149.445         -52.0842        -59.9187         -51.9932        -61.0746       -0.0122634         147.494
0.555                  -0.710563        -150.045         -51.9628        -60.7357         -51.9091        -61.8644       -0.0123593         147.424
0.556                  -0.731194        -150.648         -51.8231        -61.5888          -51.801        -62.6361       -0.0124564         147.353
0.557                  -0.752546        -151.255         -51.6685        -62.4988         -51.6708        -63.4307       -0.0125546         147.283
0.558                  -0.774644        -151.866         -51.5022        -63.4774         -51.5219        -64.2789       -0.0126542         147.212
0.559                  -0.797513         -152.48         -51.3276        -64.5296         -51.3583        -65.1999       -0.0127551         147.141
0.56                   -0.821178        -153.097         -51.1474         -65.655          -51.184        -66.2027       -0.0128573          147.07
0.561                  -0.845664        -153.718         -50.9638        -66.8501         -51.0025        -67.2889        -0.012961         146.999
0.562                  -0.870996        -154.342         -50.7786        -68.1095         -50.8168        -68.4552       -0.0130661         146.928
0.563                  -0.897199        -154.969         -50.5931        -69.4271          -50.629        -69.6951       -0.0131728         146.857
0.564                  -0.924298          -155.6         -50.4082        -70.7967         -50.4409        -71.0014        -0.013281         146.785
0.565                  -0.952317        -156.233         -50.2247        -72.2124         -50.2535        -72.3663       -0.0133909         146.714
0.566                   -0.98128        -156.868          -50.043        -73.6687         -50.0678        -73.7826       -0.0135026         146.642
0.567                   -1.01121        -157.507         -49.8633         -75.161         -49.8843        -75.2435       -0.0136159          146.57
0.568                   -1.04213        -158.148         -49.6859         -76.685         -49.7032        -76.7434       -0.0137311         146.498
0.569                   -1.07406         -158.79         -49.5109        -78.2371         -49.5248        -78.2772       -0.0138482         146.426
0.57                    -1.10702        -159.435         -49.3383        -79.8142         -49.3491        -79.8406       -0.0139673         146.353
0.571                   -1.14103        -160.082         -49.1682        -81.4136         -49.1761        -81.4301       -0.0140883         146.281
0.572                   -1.17611         -160.73         -49.0004        -83.0331         -49.0059        -83.0424       -0.0142114         146.208
0.573                   -1.21228         -161.38          -48.835        -84.6707         -48.8384        -84.6752       -0.0143367         146.136
0.574                   -1.24954        -162.031         -48.6719        -86.3248         -48.6734        -86.3261       -0.0144641         146.063
0.575                   -1.28791        -162.682         -48.5111        -87.9939         -48.5111        -87.9934       -0.0145938          145.99
0.576                    -1.3274        -163.334         -48.3525        -89.6768         -48.3512        -89.6754       -0.0147259         145.917
0.577                   -1.36802        -163.987         -48.1962        -91.3724         -48.1938        -91.3709       -0.0148603         145.843
0.578                   -1.40977        -164.639          -48.042        -93.0797         -48.0386        -93.0787       -0.0149971          145.77
0.579                   -1.45265        -165.291         -47.8899        -94.7979         -47.8858        -94.7977       -0.0151365         145.696
0.58                    -1.49666        -165.942         -47.7399        -96.5262         -47.7352         -96.527       -0.0152784         145.622
0.581                    -1.5418        -166.593         -47.5919        -98.2639         -47.5868         -98.266       -0.0154229         145.548
0.582                   -1.58805        -167.242          -47.446         -100.01         -47.4406        -100.014       -0.0155702         145.474
0.583                    -1.6354         -167.89         -47.3021        -101.765         -47.2964         -101.77       -0.0157201           145.4
0.584                   -1.68385        -168.535         -47.1601        -103.528         -47.1543        -103.533       -0.0158728         145.325
0.585                   -1.73336        -169.179         -47.0201        -105.297         -47.0142        -105.304       -0.0160283         145.251
0.586                   -1.78391         -169.82          -46.882        -107.073         -46.8761        -107.082       -0.0161867         145.176
0.587                   -1.83548        -170.458         -46.7459        -108.856           -46.74        -108.865       -0.0163481         145.101
0.588                   -1.88803        -171.093         -46.6116        -110.644         -46.6059        -110.654       -0.0165124         145.026
0.589                   -1.94153        -171.725         -46.4792        -112.437         -46.4736        -112.448       -0.0166797         144.951
0.59                    -1.99594        -172.353         -46.3487        -114.235         -46.3433        -114.247         -0.01685         144.875
0.591                    -2.0512        -172.977         -46.2201        -116.038         -46.2149         -116.05       -0.0170235           144.8
0.592                   -2.10728        -173.597         -46.0933        -117.844         -46.0883        -117.857          -0.0172         144.724
0.593                   -2.16411        -174.213         -45.9684        -119.654         -45.9636        -119.667       -0.0173796         144.648
0.594                   -2.22166        -174.824         -45.8452        -121.468         -45.8407        -121.481       -0.0175625         144.572
0.595                   -2.27984        -175.431         -45.7239        -123.284         -45.7197        -123.297       -0.0177485         144.495
0.596                   -2.33862        -176.033         -45.6044        -125.102         -45.6004        -125.115       -0.0179377         144.419
0.597                   -2.39791        -176.629         -45.4866        -126.922         -45.4829        -126.935       -0.0181301         144.342
0.598                   -2.45766        -177.221         -45.3706        -128.744         -45.3671        -128.757       -0.0183258         144.265
0.599                   -2.51779        -177.809         -45.2563        -130.567         -45.2531        -130.579       -0.0185247         144.188
0.6                     -2.57824        -178.391         -45.1437         -132.39         -45.1408        -132.402       -0.0187268         144.111
0.601                   -2.63894        -178.968         -45.0328        -134.214         -45.0301        -134.226       -0.0189322         144.034
0.602                   -2.69981        -179.541         -44.9236        -136.038         -44.9212        -136.049       -0.0191408         143.956
0.603                    -2.7608         179.891          -44.816        -137.861         -44.8138        -137.872       -0.0193527         143.878
0.604                   -2.82183         179.328           -44.71        -139.684          -44.708        -139.694       -0.0195678           143.8
0.605                   -2.88284         178.768         -44.6055        -141.506         -44.6038        -141.515       -0.0197861         143.722
0.606                   -2.94375         178.213         -44.5026        -143.326         -44.5011        -143.334       -0.0200077         143.644
0.607                   -3.00452         177.661         -44.4012        -145.144         -44.3999        -145.151       -0.0202325         143.565
0.608                   -3.06508         177.112         -44.3013         -146.96         -44.3001        -146.967       -0.0204605         143.486
0.609                   -3.12539         176.566         -44.2028        -148.773         -44.2018        -148.779       -0.0206917         143.407
0.61                    -3.18538         176.023         -44.1057        -150.584         -44.1048        -150.589       -0.0209261         143.328
0.611                   -3.24501         175.482         -44.0099        -152.392         -44.0092        -152.396       -0.0211637         143.249
0.612                   -3.30426         174.942         -43.9154        -154.196         -43.9149          -154.2       -0.0214044         143.169
0.613                   -3.36307         174.403         -43.8222        -155.997         -43.8218            -156       -0.0216483         143.089
0.614                   -3.42144         173.864         -43.7302        -157.793         -43.7299        -157.796       -0.0218953         143.009
0.615                   -3.47932         173.326         -43.6393        -159.586         -43.6391        -159.588       -0.0221455         142.929
0.616                   -3.53671         172.787         -43.5496        -161.374         -43.5495        -161.375       -0.0223988         142.848
0.617                   -3.59361         172.246         -43.4609        -163.158         -43.4609        -163.158       -0.0226552         142.768
0.618                      -3.65         171.704         -43.3732        -164.937         -43.3733        -164.937       -0.0229148         142.687
0.619                   -3.70589          171.16         -43.2865        -166.711         -43.2866         -166.71       -0.0231775         142.605
0.62                     -3.7613         170.612         -43.2007         -168.48         -43.2009        -168.479       -0.0234433         142.524
0.621                   -3.81623         170.061         -43.1158        -170.244          -43.116        -170.242       -0.0237123         142.442
0.622                   -3.87073         169.506         -43.0317        -172.002         -43.0319            -172       -0.0239844          142.36
0.623                   -3.92481         168.946         -42.9483        -173.756         -42.9485        -173.753       -0.0242597         142.278
0.624                   -3.97851         168.381         -42.8656        -175.503         -42.8659          -175.5       -0.0245381         142.196
0.625                   -4.03188          167.81         -42.7836        -177.245         -42.7839        -177.242       -0.0248198         142.113
0.626                   -4.08497         167.233         -42.7022        -178.982         -42.7025        -178.978       -0.0251047          142.03
0.627                   -4.13782         166.649         -42.6213         179.287         -42.6216         179.292       -0.0253929         141.947
0.628                   -4.19051         166.057         -42.5409         177.562         -42.5412         177.567       -0.0256844         141.864
0.629                   -4.24308         165.458          -42.461         175.843         -42.4613         175.847       -0.0259792          141.78
0.63                    -4.29562          164.85         -42.3814         174.129         -42.3817         174.133       -0.0262775         141.696
0.631                   -4.34819         164.233         -42.3022         172.421         -42.3026         172.425       -0.0265792         141.612
0.632                   -4.40087         163.607         -42.2234         170.718         -42.2237         170.723       -0.0268843         141.527
0.633                   -4.45374         162.972         -42.1447         169.021          -42.145         169.026       -0.0271931         141.442
0.634                   -4.50689         162.327         -42.0663         167.329         -42.0666         167.334       -0.0275055         141.357
0.635                   -4.56041         161.671          -41.988         165.642         -41.9883         165.647       -0.0278216         141.272
0.636                   -4.61438         161.005         -41.9099         163.961         -41.9101         163.966       -0.0281415         141.186
0.637                    -4.6689         160.328         -41.8318         162.285          -41.832          162.29       -0.0284653           141.1
0.638                   -4.72406          159.64         -41.7538         160.614          -41.754         160.619        -0.028793         141.014
0.639                   -4.77997         158.941         -41.6758         158.948          -41.676         158.952       -0.0291248         140.927
0.64                    -4.83672          158.23         -41.5978         157.286         -41.5979         157.291       -0.0294607          140.84
0.641                   -4.89442         157.507         -41.5197         155.629         -41.5198         155.634       -0.0298009         140.753
0.642                   -4.95318         156.773         -41.4414         153.977         -41.4415         153.981       -0.0301454         140.666
0.643                    -5.0131         156.026         -41.3631         152.329         -41.3632         152.332       -0.0304945         140.578
0.644                    -5.0743         155.268         -41.2846         150.684         -41.2847         150.688       -0.0308481          140.49
0.645                   -5.13688         154.497         -41.2059         149.044         -41.2059         149.047       -0.0312065         140.401
0.646                   -5.20096         153.714          -41.127         147.407          -41.127          147.41       -0.0315697         140.312
0.647                   -5.26665         152.918         -41.0478         145.773         -41.0479         145.776       -0.0319379         140.223
0.648                   -5.33408         152.111         -40.9684         144.143         -40.9684         144.146       -0.0323112         140.133
0.649                   -5.40336         151.291         -40.8887         142.516         -40.8887         142.518       -0.0326898         140.043
0.65                    -5.47461         150.459         -40.8088         140.891         -40.8088         140.893       -0.0330739         139.953
0.651                   -5.54797         149.614         -40.7285         139.269         -40.7285         139.271       -0.0334635         139.862
0.652                   -5.62355         148.758         -40.6479         137.649         -40.6479         137.651       -0.0338589         139.771
0.653                   -5.70148          147.89          -40.567         136.031         -40.5669         136.033       -0.0342601          139.68
0.654                    -5.7819          147.01         -40.4857         134.415         -40.4857         134.417       -0.0346675         139.588
0.655                   -5.86494         146.118         -40.4041         132.801          -40.404         132.802        -0.035081         139.496
0.656                   -5.95073         145.215         -40.3221         131.188         -40.3221         131.189       -0.0355011         139.403
0.657                   -6.03942           144.3         -40.2398         129.576         -40.2398         129.576       -0.0359277          139.31
0.658                   -6.13114         143.375         -40.1572         127.964         -40.1571         127.965       -0.0363612         139.217
0.659                   -6.22605         142.438         -40.0742         126.354         -40.0742         126.354       -0.0368016         139.123
0.66                    -6.32429         141.492         -39.9909         124.744         -39.9909         124.744       -0.0372493         139.029
0.661                   -6.42601         140.536         -39.9072         123.133         -39.9072         123.133       -0.0377044         138.934
0.662                   -6.53137         139.569         -39.8233         121.523         -39.8233         121.523       -0.0381671         138.839
0.663                   -6.64053         138.594         -39.7391         119.913          -39.739         119.912       -0.0386377         138.744
0.664                   -6.75365          137.61         -39.6545         118.302         -39.6545         118.301       -0.0391164         138.648
0.665                    -6.8709         136.618         -39.5697          116.69         -39.5697         116.689       -0.0396033         138.551
0.666                   -6.99246         135.618         -39.4847         115.077         -39.4847         115.077       -0.0400989         138.454
0.667                    -7.1185         134.611         -39.3995         113.463         -39.3995         113.463       -0.0406032         138.357
0.668                    -7.2492         133.597          -39.314         111.848          -39.314         111.848       -0.0411166         138.259
0.669                   -7.38476         132.578         -39.2284         110.232         -39.2284         110.231       -0.0416394         138.161
0.67                    -7.52536         131.554         -39.1427         108.614         -39.1427         108.613       -0.0421717         138.062
0.671                   -7.67121         130.526         -39.0568         106.994         -39.0569         106.993       -0.0427139         137.962
0.672                   -7.82252         129.494         -38.9709         105.372         -38.9709         105.371       -0.0432663         137.863
0.673                   -7.97949          128.46          -38.885         103.748          -38.885         103.748       -0.0438291         137.762
0.674                   -8.14235         127.425          -38.799         102.123          -38.799         102.122       -0.0444027         137.661
0.675                   -8.31132          126.39         -38.7131         100.495         -38.7131         100.494       -0.0449873          137.56
0.676                   -8.48665         125.356         -38.6272         98.8648         -38.6272         98.8642       -0.0455834         137.458
0.677                   -8.66857         124.325         -38.5415         97.2326         -38.5415         97.2321       -0.0461911         137.356
0.678                   -8.85735         123.298         -38.4559         95.5983         -38.4559         95.5978        -0.046811         137.252
0.679                   -9.05323         122.276         -38.3705         93.9618         -38.3705         93.9613       -0.0474432         137.149
0.68                    -9.25651         121.262         -38.2854         92.3231         -38.2854         92.3227       -0.0480882         137.045
0.681                   -9.46746         120.257         -38.2005         90.6823         -38.2005          90.682       -0.0487464          136.94
0.682                   -9.68638         119.263         -38.1159         89.0396         -38.1159         89.0393       -0.0494181         136.835
0.683                   -9.91358         118.282         -38.0317         87.3949         -38.0317         87.3947       -0.0501037         136.729
0.684                   -10.1494         117.318         -37.9479         85.7485         -37.9478         85.7484       -0.0508037         136.622
0.685                   -10.3941         116.373         -37.8645         84.1004         -37.8644         84.1004       -0.0515183         136.515
0.686                   -10.6481         115.449         -37.7816         82.4509         -37.7815         82.4509       -0.0522482         136.407
0.687                   -10.9117          114.55         -37.6991         80.8001          -37.699         80.8002       -0.0529936         136.298
0.688                   -11.1854          113.68         -37.6172         79.1483         -37.6171         79.1484        -0.053755         136.189
0.689                   -11.4694         112.844         -37.5359         77.4956         -37.5358         77.4958       -0.0545329         136.079
0.69                    -11.7642         112.044         -37.4552         75.8424         -37.4551         75.8426       -0.0553277         135.969
0.691                   -12.0702         111.287         -37.3751          74.189         -37.3749         74.1892         -0.05614         135.858
0.692                   -12.3879         110.578         -37.2956         72.5355         -37.2954         72.5357       -0.0569702         135.746
0.693                   -12.7175         109.923         -37.2168         70.8824         -37.2166         70.8826       -0.0578188         135.633
0.694                   -13.0596         109.331         -37.1387         69.2299         -37.1385         69.2301       -0.0586864          135.52
0.695                   -13.4145         108.808         -37.0612         67.5784          -37.061         67.5786       -0.0595733         135.406
0.696                   -13.7826         108.364         -36.9845         65.9282         -36.9843         65.9284       -0.0604803         135.291
0.697                   -14.1643          108.01         -36.9084         64.2797         -36.9082         64.2799       -0.0614078         135.175