! TOUCHSTONE file generated by CST MICROWAVE STUDIO
! Date and time: Fri Oct 30 08:08:30 2020
! Project name: Scenario_1_Circular_Tissue_out_of_Line.cst
! Parameters = {dy1=122.207; L_HA=400; MT=2.54; Rad_Dielectric=30; Rad_Lower=7.3; Rad_Upper=30; a_HA=580; a_WG=246; b_HA=500; b_WG=121; c_HA=0; c_WG=187; d_feed=85; dx1=520; h_feed=15; h_lower=18; h_upper=40}
! Header version: 2018
! Port assignment regex: !\s*Touchstone port\s*([0-9]+)\s*=\s*(CST MWS port|CST DS port)\s*([0-9]+|Zmin|Zmax)\s*\(\"(.*)\"\)(\s*mode\s*([0-9]+))?.*
! Touchstone port assignment:
! Touchstone port 1 = CST MWS port 1 ("")
! Touchstone port 2 = CST MWS port 2 ("")
# GHz S DB R 50
0.5                    -0.133511        -122.475         -61.4689        -64.5672         -61.4677        -64.5638      -0.00736263         151.134
0.501                  -0.139092        -122.923         -61.2743        -65.9943         -61.2731        -65.9905       -0.0074257         151.068
0.502                  -0.144943        -123.374         -61.0786          -67.44         -61.0773        -67.4359      -0.00748934         151.003
0.503                  -0.151073        -123.826         -60.8818        -68.9046         -60.8805        -68.9002      -0.00755359         150.937
0.504                  -0.157492        -124.281          -60.684        -70.3885         -60.6827        -70.3838      -0.00761847         150.872
0.505                  -0.164209        -124.738         -60.4854         -71.892         -60.4841        -71.8871      -0.00768405         150.806
0.506                  -0.171235        -125.197          -60.286        -73.4155         -60.2847        -73.4105      -0.00775035         150.741
0.507                  -0.178577        -125.658         -60.0859        -74.9593         -60.0846        -74.9542      -0.00781743         150.675
0.508                  -0.186246        -126.122         -59.8852        -76.5238         -59.8839        -76.5186      -0.00788534         150.609
0.509                  -0.194252        -126.587         -59.6841        -78.1091         -59.6827        -78.1039      -0.00795415         150.543
0.51                   -0.202602        -127.055         -59.4826        -79.7156         -59.4812        -79.7104      -0.00802391         150.477
0.511                  -0.211306        -127.525         -59.2808        -81.3434         -59.2795        -81.3383       -0.0080947         150.411
0.512                  -0.220372        -127.996          -59.079        -82.9929         -59.0777        -82.9879      -0.00816657         150.345
0.513                  -0.229808         -128.47         -58.8772        -84.6642         -58.8759        -84.6592      -0.00823961         150.278
0.514                   -0.23962        -128.945         -58.6755        -86.3573         -58.6743        -86.3525      -0.00831387         150.212
0.515                  -0.249814        -129.422         -58.4742        -88.0724          -58.473        -88.0678      -0.00838944         150.146
0.516                  -0.260396        -129.901         -58.2733        -89.8096         -58.2721        -89.8052      -0.00846639         150.079
0.517                  -0.271371        -130.381          -58.073        -91.5688         -58.0718        -91.5646      -0.00854479         150.013
0.518                   -0.28274        -130.862         -57.8734          -93.35         -57.8723        -93.3459       -0.0086247         149.946
0.519                  -0.294507        -131.345         -57.6747         -95.153         -57.6736        -95.1492       -0.0087062         149.879
0.52                   -0.306671         -131.83         -57.4771        -96.9777         -57.4761        -96.9741      -0.00878935         149.812
0.521                  -0.319232        -132.315         -57.2807        -98.8238         -57.2797        -98.8205      -0.00887419         149.745
0.522                  -0.332186        -132.801         -57.0857        -100.691         -57.0847        -100.688      -0.00896079         149.678
0.523                  -0.345529        -133.288         -56.8921        -102.579         -56.8913        -102.576      -0.00904917         149.611
0.524                  -0.359255        -133.776         -56.7003        -104.488         -56.6995        -104.485      -0.00913938         149.544
0.525                  -0.373356        -134.265         -56.5104        -106.416         -56.5096        -106.413      -0.00923143         149.477
0.526                  -0.387821        -134.755         -56.3224        -108.363         -56.3217        -108.361      -0.00932534         149.409
0.527                  -0.402637        -135.245         -56.1366        -110.329         -56.1359        -110.327       -0.0094211         149.342
0.528                  -0.417791        -135.735          -55.953        -112.313         -55.9524        -112.311      -0.00951872         149.274
0.529                  -0.433267        -136.225         -55.7719        -114.314         -55.7714        -114.312      -0.00961817         149.207
0.53                   -0.449045        -136.716         -55.5934        -116.331         -55.5929        -116.329      -0.00971942         149.139
0.531                  -0.465105        -137.207         -55.4176        -118.363         -55.4171        -118.362      -0.00982243         149.071
0.532                  -0.481427        -137.699         -55.2445        -120.409         -55.2442        -120.408      -0.00992717         149.003
0.533                  -0.497986         -138.19         -55.0744        -122.469         -55.0741        -122.468       -0.0100336         148.935
0.534                  -0.514757        -138.681         -54.9072         -124.54          -54.907        -124.539       -0.0101416         148.867
0.535                  -0.531716        -139.173         -54.7432        -126.623          -54.743        -126.622       -0.0102511         148.799
0.536                  -0.548835        -139.664         -54.5823        -128.715         -54.5822        -128.714       -0.0103621          148.73
0.537                  -0.566087        -140.156         -54.4246        -130.815         -54.4245        -130.815       -0.0104745         148.662
0.538                  -0.583445        -140.648         -54.2702        -132.923         -54.2701        -132.922       -0.0105882         148.594
0.539                  -0.600883         -141.14          -54.119        -135.036          -54.119        -135.036       -0.0107032         148.525
0.54                   -0.618373        -141.633         -53.9711        -137.155         -53.9712        -137.154       -0.0108193         148.456
0.541                  -0.635891        -142.126         -53.8266        -139.276         -53.8267        -139.275       -0.0109366         148.387
0.542                  -0.653413        -142.619         -53.6853          -141.4         -53.6854        -141.399       -0.0110548         148.319
0.543                  -0.670915        -143.114         -53.5472        -143.524         -53.5473        -143.523       -0.0111741          148.25
0.544                  -0.688379        -143.609         -53.4123        -145.648         -53.4125        -145.647       -0.0112942         148.181
0.545                  -0.705786        -144.105         -53.2806        -147.771         -53.2808         -147.77       -0.0114151         148.111
0.546                   -0.72312        -144.603          -53.152         -149.89         -53.1522        -149.889       -0.0115369         148.042
0.547                   -0.74037        -145.103         -53.0263        -152.006         -53.0265        -152.005       -0.0116594         147.973
0.548                  -0.757525        -145.604         -52.9036        -154.117         -52.9038        -154.117       -0.0117826         147.903
0.549                   -0.77458        -146.108         -52.7836        -156.223         -52.7839        -156.222       -0.0119065         147.834
0.55                   -0.791532        -146.613         -52.6663        -158.321         -52.6666         -158.32        -0.012031         147.764
0.551                  -0.808381        -147.122         -52.5517        -160.413         -52.5519        -160.412       -0.0121561         147.694
0.552                  -0.825131        -147.633         -52.4394        -162.496         -52.4397        -162.495       -0.0122818         147.624
0.553                  -0.841788        -148.147         -52.3295         -164.57         -52.3297        -164.568        -0.012408         147.554
0.554                  -0.858364        -148.665         -52.2217        -166.634          -52.222        -166.633       -0.0125349         147.484
0.555                  -0.874871        -149.186          -52.116        -168.688         -52.1162        -168.687       -0.0126622         147.414
0.556                  -0.891325        -149.711         -52.0122        -170.732         -52.0124        -170.731       -0.0127902         147.344
0.557                  -0.907746         -150.24         -51.9101        -172.765         -51.9103        -172.764       -0.0129187         147.273
0.558                  -0.924156        -150.773         -51.8097        -174.787         -51.8099        -174.786       -0.0130477         147.202
0.559                  -0.940578        -151.311         -51.7107        -176.797         -51.7109        -176.796       -0.0131773         147.132
0.56                   -0.957039        -151.854         -51.6131        -178.795         -51.6132        -178.795       -0.0133075         147.061
0.561                  -0.973567        -152.401         -51.5166         179.218         -51.5168         179.218       -0.0134383          146.99
0.562                  -0.990191        -152.954         -51.4212         177.242         -51.4213         177.243       -0.0135698         146.919
0.563                   -1.00694        -153.511         -51.3268         175.279         -51.3269         175.279       -0.0137018         146.848
0.564                   -1.02386        -154.075         -51.2331         173.327         -51.2332         173.327       -0.0138346         146.776
0.565                   -1.04097        -154.643         -51.1401         171.386         -51.1401         171.387        -0.013968         146.705
0.566                   -1.05831        -155.218         -51.0476         169.457         -51.0477         169.457       -0.0141021         146.633
0.567                   -1.07592        -155.798         -50.9556         167.539         -50.9556         167.539        -0.014237         146.561
0.568                   -1.09384        -156.384         -50.8639         165.632         -50.8639         165.632       -0.0143727         146.489
0.569                    -1.1121        -156.976         -50.7725         163.735         -50.7724         163.735       -0.0145092         146.417
0.57                    -1.13073        -157.575         -50.6811         161.848         -50.6811         161.848       -0.0146465         146.345
0.571                   -1.14979        -158.179         -50.5898         159.971         -50.5898          159.97       -0.0147848         146.273
0.572                   -1.16931        -158.789         -50.4985         158.103         -50.4984         158.103       -0.0149239           146.2
0.573                   -1.18932        -159.406          -50.407         156.244         -50.4069         156.244       -0.0150641         146.128
0.574                   -1.20987        -160.029         -50.3153         154.394         -50.3152         154.393       -0.0152053         146.055
0.575                     -1.231        -160.659         -50.2233         152.552         -50.2232         152.551       -0.0153475         145.982
0.576                   -1.25274        -161.294          -50.131         150.717         -50.1309         150.716       -0.0154908         145.909
0.577                   -1.27515        -161.936         -50.0383         148.889         -50.0382         148.888       -0.0156353         145.836
0.578                   -1.29825        -162.585         -49.9452         147.068         -49.9451         147.067        -0.015781         145.763
0.579                    -1.3221         -163.24         -49.8516         145.254         -49.8514         145.252       -0.0159279         145.689
0.58                    -1.34672        -163.901         -49.7574         143.444         -49.7573         143.443       -0.0160761         145.616
0.581                   -1.37217        -164.568         -49.6627          141.64         -49.6626         141.638       -0.0162257         145.542
0.582                   -1.39848        -165.241         -49.5674          139.84         -49.5673         139.838       -0.0163767         145.468
0.583                    -1.4257        -165.921         -49.4715         138.045         -49.4714         138.043       -0.0165291         145.394
0.584                   -1.45387        -166.607          -49.375         136.252         -49.3748          136.25       -0.0166831         145.319
0.585                   -1.48304        -167.299         -49.2778         134.463         -49.2776         134.461       -0.0168387         145.245
0.586                   -1.51323        -167.997         -49.1799         132.677         -49.1798         132.675       -0.0169958          145.17
0.587                   -1.54451        -168.701         -49.0814         130.892         -49.0813          130.89       -0.0171547         145.096
0.588                    -1.5769         -169.41         -48.9823          129.11         -48.9821         129.107       -0.0173153         145.021
0.589                   -1.61046        -170.126         -48.8825         127.328         -48.8823         127.325       -0.0174778         144.946
0.59                    -1.64523        -170.846          -48.782         125.547         -48.7819         125.544       -0.0176421          144.87
0.591                   -1.68125        -171.573         -48.6809         123.766         -48.6808         123.764       -0.0178083         144.795
0.592                   -1.71856        -172.304         -48.5792         121.985         -48.5791         121.982       -0.0179766         144.719
0.593                   -1.75722        -173.041         -48.4769         120.203         -48.4768         120.201        -0.018147         144.643
0.594                   -1.79726        -173.783          -48.374         118.421         -48.3739         118.418       -0.0183195         144.567
0.595                   -1.83873        -174.529         -48.2706         116.637         -48.2705         116.634       -0.0184942         144.491
0.596                   -1.88168         -175.28         -48.1666         114.851         -48.1666         114.848       -0.0186712         144.415
0.597                   -1.92614        -176.035         -48.0622         113.063         -48.0621          113.06       -0.0188505         144.338
0.598                   -1.97216        -176.795         -47.9573         111.272         -47.9573          111.27       -0.0190323         144.261
0.599                   -2.01978        -177.558          -47.852         109.479          -47.852         109.476       -0.0192166         144.184
0.6                     -2.06904        -178.325         -47.7464         107.682         -47.7464          107.68       -0.0194034         144.107
0.601                      -2.12        -179.095         -47.6404         105.883         -47.6404          105.88       -0.0195929          144.03
0.602                   -2.17268        -179.868         -47.5342         104.079         -47.5341         104.077       -0.0197851         143.952
0.603                   -2.22712         179.356         -47.4277         102.272         -47.4277          102.27       -0.0199801         143.875
0.604                   -2.28336         178.578          -47.321         100.461          -47.321         100.458        -0.020178         143.797
0.605                   -2.34145         177.799         -47.2142         98.6449         -47.2142         98.6429       -0.0203788         143.719
0.606                    -2.4014         177.017         -47.1073          96.825         -47.1074         96.8231       -0.0205826          143.64
0.607                   -2.46326         176.235         -47.0005         95.0005         -47.0005         94.9987       -0.0207896         143.562
0.608                   -2.52704         175.452         -46.8936         93.1714         -46.8936         93.1697       -0.0209997         143.483
0.609                   -2.59279         174.669         -46.7868         91.3375         -46.7869          91.336        -0.021213         143.404
0.61                    -2.66052         173.886         -46.6802         89.4989         -46.6803         89.4975       -0.0214297         143.325
0.611                   -2.73024         173.104         -46.5738         87.6555         -46.5739         87.6542       -0.0216498         143.245
0.612                   -2.80199         172.323         -46.4677         85.8073         -46.4677         85.8061       -0.0218734         143.166
0.613                   -2.87575         171.544         -46.3618         83.9543         -46.3619         83.9533       -0.0221005         143.086
0.614                   -2.95156         170.767         -46.2564         82.0966         -46.2565         82.0957       -0.0223312         143.006
0.615                   -3.02939         169.993         -46.1514         80.2342         -46.1514         80.2334       -0.0225657         142.925
0.616                   -3.10926         169.223         -46.0468         78.3673         -46.0469         78.3667       -0.0228039         142.845
0.617                   -3.19116         168.457         -45.9429          76.496         -45.9429         76.4955        -0.023046         142.764
0.618                   -3.27506         167.695         -45.8395         74.6204         -45.8395           74.62        -0.023292         142.683
0.619                   -3.36095         166.939         -45.7367         72.7408         -45.7367         72.7405        -0.023542         142.602
0.62                     -3.4488         166.188         -45.6346         70.8573         -45.6347         70.8571       -0.0237961          142.52
0.621                   -3.53858         165.444         -45.5333         68.9701         -45.5333         68.9701       -0.0240543         142.439
0.622                   -3.63025         164.707         -45.4328         67.0795         -45.4328         67.0796       -0.0243167         142.357
0.623                   -3.72376         163.978          -45.333         65.1858         -45.3331          65.186       -0.0245835         142.274
0.624                   -3.81905         163.257         -45.2342         63.2893         -45.2342         63.2896       -0.0248546         142.192
0.625                   -3.91606         162.545         -45.1362         61.3903         -45.1362         61.3907       -0.0251301         142.109
0.626                   -4.01472         161.842         -45.0391          59.489         -45.0391         59.4895       -0.0254101         142.026
0.627                   -4.11497         161.149          -44.943         57.5859          -44.943         57.5865       -0.0256947         141.943
0.628                    -4.2167         160.466         -44.8479         55.6813         -44.8479         55.6819       -0.0259839         141.859
0.629                   -4.31984         159.794         -44.7538         53.7756         -44.7538         53.7763       -0.0262778         141.775
0.63                    -4.42429         159.132         -44.6607          51.869         -44.6606         51.8698       -0.0265765         141.691
0.631                   -4.52994         158.483         -44.5686         49.9621         -44.5685         49.9629       -0.0268801         141.607
0.632                   -4.63668         157.845         -44.4775         48.0552         -44.4775          48.056       -0.0271885         141.522
0.633                   -4.74441         157.219         -44.3875         46.1486         -44.3874         46.1495       -0.0275019         141.437
0.634                   -4.85301         156.606         -44.2985         44.2428         -44.2984         44.2437       -0.0278204         141.352
0.635                   -4.96235         156.005         -44.2105         42.3381         -44.2104         42.3391       -0.0281439         141.267
0.636                    -5.0723         155.416         -44.1236          40.435         -44.1235          40.436       -0.0284726         141.181
0.637                   -5.18275         154.839         -44.0376         38.5339         -44.0375         38.5348       -0.0288066         141.095
0.638                   -5.29357         154.275         -43.9527          36.635         -43.9526         36.6359       -0.0291459         141.008
0.639                   -5.40463         153.723         -43.8687         34.7387         -43.8686         34.7396       -0.0294906         140.922
0.64                     -5.5158         153.183         -43.7857         32.8454         -43.7855         32.8464       -0.0298407         140.835
0.641                   -5.62696         152.655         -43.7035         30.9555         -43.7034         30.9564       -0.0301964         140.747
0.642                   -5.73799         152.137         -43.6223         29.0693         -43.6221         29.0702       -0.0305576          140.66
0.643                   -5.84877         151.631         -43.5419          27.187         -43.5417         27.1879       -0.0309245         140.572
0.644                    -5.9592         151.134         -43.4623          25.309         -43.4621         25.3098       -0.0312972         140.483
0.645                   -6.06917         150.648         -43.3835         23.4355         -43.3833         23.4363       -0.0316757         140.395
0.646                   -6.17859          150.17         -43.3054         21.5669         -43.3052         21.5676         -0.03206         140.306
0.647                   -6.28736           149.7          -43.228         19.7032         -43.2278         19.7039       -0.0324504         140.217
0.648                   -6.39542         149.238         -43.1512         17.8448          -43.151         17.8454       -0.0328469         140.127
0.649                   -6.50271         148.782          -43.075         15.9918         -43.0748         15.9924       -0.0332494         140.037
0.65                    -6.60915         148.332         -42.9994         14.1444         -42.9992          14.145       -0.0336583         139.947
0.651                   -6.71472         147.886         -42.9242         12.3028          -42.924         12.3033       -0.0340734         139.856
0.652                   -6.81939         147.445         -42.8494          10.467         -42.8493         10.4674        -0.034495         139.765
0.653                   -6.92314         147.006          -42.775         8.63715         -42.7749         8.63754       -0.0349232         139.674
0.654                   -7.02598         146.569          -42.701         6.81336         -42.7008          6.8137       -0.0353579         139.582
0.655                    -7.1279         146.132         -42.6272         4.99566          -42.627         4.99594       -0.0357994          139.49
0.656                   -7.22895         145.696         -42.5536         3.18407         -42.5535         3.18431       -0.0362477         139.397
0.657                   -7.32915         145.258         -42.4802         1.37861         -42.4801          1.3788        -0.036703         139.304
0.658                   -7.42858         144.818         -42.4069       -0.420737         -42.4068       -0.420596       -0.0371654         139.211
0.659                   -7.52728         144.375         -42.3336        -2.21401         -42.3335        -2.21391       -0.0376349         139.117
0.66                    -7.62536         143.927         -42.2604        -4.00126         -42.2603        -4.00121       -0.0381118         139.023
0.661                   -7.72288         143.475         -42.1871        -5.78258         -42.1869        -5.78256       -0.0385962         138.928
0.662                   -7.81997         143.017         -42.1137        -7.55804         -42.1135        -7.55806       -0.0390881         138.833
0.663                   -7.91675         142.552         -42.0401        -9.32778           -42.04        -9.32783       -0.0395878         138.738
0.664                   -8.01332          142.08         -41.9663        -11.0919         -41.9662         -11.092       -0.0400954         138.642
0.665                   -8.10985           141.6         -41.8924        -12.8506         -41.8922        -12.8507        -0.040611         138.546
0.666                   -8.20646         141.112         -41.8181         -14.604          -41.818        -14.6041       -0.0411349         138.449
0.667                   -8.30332         140.614         -41.7435        -16.3523         -41.7434        -16.3525       -0.0416671         138.352
0.668                   -8.40059         140.106         -41.6685        -18.0957         -41.6684        -18.0959       -0.0422079         138.254
0.669                   -8.49845         139.589         -41.5931        -19.8343          -41.593        -19.8345       -0.0427574         138.156
0.67                    -8.59707         139.061         -41.5173        -21.5685         -41.5172        -21.5687       -0.0433159         138.057
0.671                   -8.69662         138.522          -41.441        -23.2984          -41.441        -23.2987       -0.0438834         137.958
0.672                   -8.79732         137.973         -41.3643        -25.0243         -41.3642        -25.0246       -0.0444603         137.858
0.673                   -8.89934         137.413         -41.2869        -26.7465         -41.2869        -26.7467       -0.0450468         137.758
0.674                   -9.00288         136.841         -41.2091        -28.4651         -41.2091        -28.4653        -0.045643         137.658
0.675                   -9.10816         136.259         -41.1307        -30.1804         -41.1306        -30.1807       -0.0462492         137.557
0.676                   -9.21537         135.666         -41.0517        -31.8928         -41.0516         -31.893       -0.0468656         137.455
0.677                   -9.32473         135.062          -40.972        -33.6024          -40.972        -33.6026       -0.0474925         137.353
0.678                   -9.43645         134.448         -40.8918        -35.3095         -40.8918        -35.3098       -0.0481301          137.25
0.679                   -9.55074         133.823         -40.8109        -37.0145         -40.8109        -37.0148       -0.0487787         137.147
0.68                    -9.66784          133.19         -40.7294        -38.7176         -40.7293        -38.7179       -0.0494387         137.043
0.681                   -9.78795         132.547         -40.6472        -40.4191         -40.6472        -40.4193       -0.0501101         136.938
0.682                   -9.91131         131.896         -40.5643        -42.1192         -40.5643        -42.1194       -0.0507934         136.833
0.683                   -10.0381         131.237         -40.4809        -43.8182         -40.4808        -43.8184       -0.0514889         136.728
0.684                   -10.1687         130.572         -40.3967        -45.5164         -40.3967        -45.5166       -0.0521969         136.621
0.685                   -10.3031           129.9         -40.3119        -47.2141         -40.3119        -47.2143       -0.0529177         136.514
0.686                   -10.4418         129.224         -40.2265        -48.9114         -40.2265        -48.9117       -0.0536516         136.407
0.687                   -10.5848         128.544         -40.1404        -50.6088         -40.1404         -50.609       -0.0543991         136.299
0.688                   -10.7325         127.861         -40.0537        -52.3063         -40.0537        -52.3065       -0.0551604          136.19
0.689                   -10.8851         127.176         -39.9664        -54.0043         -39.9664        -54.0045        -0.055936         136.081
0.69                    -11.0429         126.492         -39.8785        -55.7029         -39.8785        -55.7031       -0.0567262          135.97
0.691                    -11.206          125.81         -39.7901        -57.4025         -39.7901        -57.4026       -0.0575314          135.86
0.692                   -11.3748         125.132          -39.701        -59.1031          -39.701        -59.1032       -0.0583521         135.748
0.693                   -11.5495         124.459         -39.6115         -60.805         -39.6115        -60.8051       -0.0591887         135.636
0.694                   -11.7304         123.793         -39.5214        -62.5083         -39.5214        -62.5085       -0.0600416         135.523
0.695                   -11.9176         123.138         -39.4309        -64.2133         -39.4309        -64.2134       -0.0609114         135.409
0.696                   -12.1116         122.495         -39.3399          -65.92         -39.3399        -65.9202       -0.0617984         135.295
0.697                   -12.3125         121.867         -39.2484        -67.6287         -39.2484        -67.6288       -0.0627031          135.18