! TOUCHSTONE file generated by CST MICROWAVE STUDIO
! Date and time: Wed Oct 28 19:18:52 2020
! Project name: Scenario_1_Circular_Tissue_out_of_Line.cst
! Parameters = {dy1=139.548; L_HA=400; MT=2.54; Rad_Dielectric=30; Rad_Lower=7.3; Rad_Upper=30; a_HA=580; a_WG=246; b_HA=500; b_WG=121; c_HA=0; c_WG=187; d_feed=85; dx1=693; h_feed=15; h_lower=18; h_upper=40}
! Header version: 2018
! Port assignment regex: !\s*Touchstone port\s*([0-9]+)\s*=\s*(CST MWS port|CST DS port)\s*([0-9]+|Zmin|Zmax)\s*\(\"(.*)\"\)(\s*mode\s*([0-9]+))?.*
! Touchstone port assignment:
! Touchstone port 1 = CST MWS port 1 ("")
! Touchstone port 2 = CST MWS port 2 ("")
# GHz S DB R 50
0.5                    -0.153364        -122.272         -62.2763        -170.609         -62.2763        -170.609      -0.00770726          151.15
0.501                  -0.153527        -122.733         -62.1483        -172.132         -62.1483        -172.133      -0.00776979         151.085
0.502                  -0.154111        -123.196         -62.0189         -173.67          -62.019        -173.671      -0.00783268         151.019
0.503                  -0.155121        -123.662         -61.8883        -175.222         -61.8884        -175.224      -0.00789592         150.954
0.504                  -0.156558         -124.13         -61.7565        -176.789         -61.7566        -176.791      -0.00795953         150.889
0.505                  -0.158427          -124.6         -61.6234         -178.37         -61.6236        -178.372      -0.00802354         150.823
0.506                  -0.160731        -125.072         -61.4891        -179.965         -61.4893        -179.967      -0.00808794         150.758
0.507                  -0.163472        -125.546         -61.3535         178.425         -61.3537         178.423      -0.00815275         150.692
0.508                  -0.166653        -126.022         -61.2167         176.801         -61.2169         176.798      -0.00821799         150.626
0.509                  -0.170276        -126.501         -61.0787         175.162          -61.079         175.159      -0.00828367         150.561
0.51                   -0.174345        -126.981         -60.9395         173.509         -60.9398         173.505       -0.0083498         150.495
0.511                  -0.178861        -127.464         -60.7991          171.84         -60.7994         171.837      -0.00841641         150.429
0.512                  -0.183826        -127.948         -60.6576         170.158         -60.6579         170.154       -0.0084835         150.363
0.513                  -0.189243        -128.435         -60.5149          168.46         -60.5153         168.456      -0.00855109         150.297
0.514                  -0.195113        -128.923         -60.3711         166.748         -60.3715         166.744       -0.0086192         150.231
0.515                  -0.201437        -129.413         -60.2263         165.021         -60.2266         165.016      -0.00868784         150.164
0.516                  -0.208218        -129.905         -60.0803         163.279         -60.0807         163.274      -0.00875703         150.098
0.517                  -0.215457        -130.399         -59.9334         161.522         -59.9337         161.518      -0.00882679         150.032
0.518                  -0.223154        -130.894         -59.7854          159.75         -59.7857         159.746      -0.00889714         149.965
0.519                   -0.23131        -131.392         -59.6364         157.964         -59.6368          157.96       -0.0089681         149.898
0.52                   -0.239927         -131.89         -59.4866         156.163         -59.4869         156.159      -0.00903968         149.832
0.521                  -0.249004        -132.391         -59.3358         154.347         -59.3362         154.343      -0.00911191         149.765
0.522                  -0.258542        -132.893         -59.1842         152.516         -59.1846         152.512       -0.0091848         149.698
0.523                  -0.268542        -133.397         -59.0318         150.671         -59.0321         150.667      -0.00925838         149.631
0.524                  -0.279002        -133.902         -58.8786         148.811         -58.8789         148.807      -0.00933267         149.564
0.525                  -0.289923        -134.409         -58.7247         146.936          -58.725         146.932      -0.00940769         149.497
0.526                  -0.301305        -134.917         -58.5701         145.046         -58.5704         145.042      -0.00948347          149.43
0.527                  -0.313146        -135.427         -58.4149         143.142         -58.4152         143.138      -0.00956003         149.362
0.528                  -0.325445        -135.938         -58.2592         141.224         -58.2595          141.22       -0.0096374         149.295
0.529                  -0.338202        -136.451         -58.1029         139.291         -58.1032         139.287       -0.0097156         149.227
0.53                   -0.351416        -136.965         -57.9462         137.343         -57.9465          137.34      -0.00979465          149.16
0.531                  -0.365084         -137.48         -57.7892         135.382         -57.7894         135.378       -0.0098746         149.092
0.532                  -0.379206        -137.997         -57.6318         133.406          -57.632         133.403      -0.00995546         149.024
0.533                  -0.393779        -138.514         -57.4741         131.416         -57.4743         131.413       -0.0100373         148.956
0.534                  -0.408801        -139.033         -57.3163         129.413         -57.3165          129.41         -0.01012         148.888
0.535                   -0.42427        -139.554         -57.1583         127.396         -57.1585         127.393       -0.0102038          148.82
0.536                  -0.440183        -140.075         -57.0003         125.365         -57.0005         125.363       -0.0102887         148.752
0.537                  -0.456537        -140.598         -56.8423         123.321         -56.8424         123.319       -0.0103746         148.684
0.538                  -0.473331        -141.121         -56.6844         121.264         -56.6845         121.262       -0.0104616         148.615
0.539                   -0.49056        -141.646         -56.5266         119.194         -56.5267         119.192       -0.0105498         148.547
0.54                   -0.508222        -142.172         -56.3691         117.111         -56.3692          117.11       -0.0106391         148.478
0.541                  -0.526312        -142.699         -56.2119         115.016          -56.212         115.015       -0.0107297         148.409
0.542                  -0.544828        -143.227         -56.0551         112.908         -56.0551         112.908       -0.0108216          148.34
0.543                  -0.563764        -143.756         -55.8987         110.789         -55.8987         110.789       -0.0109147         148.271
0.544                  -0.583119        -144.286         -55.7429         108.659         -55.7428         108.659       -0.0110092         148.202
0.545                  -0.602886        -144.817         -55.5876         106.517         -55.5876         106.517       -0.0111051         148.133
0.546                  -0.623062        -145.349          -55.433         104.364          -55.433         104.365       -0.0112025         148.064
0.547                  -0.643643        -145.882         -55.2792         102.201         -55.2791         102.202       -0.0113013         147.994
0.548                  -0.664623        -146.416         -55.1262         100.028         -55.1261         100.029       -0.0114016         147.925
0.549                  -0.685997        -146.951         -54.9741         97.8454         -54.9739         97.8463       -0.0115036         147.855
0.55                   -0.707762        -147.487         -54.8229         95.6534         -54.8227         95.6545       -0.0116071         147.785
0.551                  -0.729911        -148.023         -54.6727         93.4525         -54.6725         93.4538       -0.0117123         147.716
0.552                  -0.752439        -148.561         -54.5236         91.2433         -54.5234         91.2447       -0.0118192         147.646
0.553                  -0.775341          -149.1         -54.3757         89.0261         -54.3754         89.0278       -0.0119279         147.576
0.554                  -0.798612        -149.639         -54.2289         86.8016         -54.2286         86.8035       -0.0120384         147.505
0.555                  -0.822246         -150.18         -54.0834         84.5702         -54.0831         84.5722       -0.0121508         147.435
0.556                  -0.846236        -150.722         -53.9392         82.3324         -53.9388         82.3345       -0.0122651         147.364
0.557                  -0.870578        -151.264         -53.7963         80.0887         -53.7959          80.091       -0.0123813         147.294
0.558                  -0.895266        -151.808         -53.6548         77.8396         -53.6544          77.842       -0.0124995         147.223
0.559                  -0.920293        -152.352         -53.5147         75.5857         -53.5143         75.5883       -0.0126198         147.152
0.56                   -0.945653        -152.898         -53.3761         73.3276         -53.3757         73.3302       -0.0127421         147.081
0.561                  -0.971341        -153.445          -53.239         71.0656         -53.2385         71.0684       -0.0128666          147.01
0.562                  -0.997351        -153.992         -53.1034         68.8005         -53.1029         68.8033       -0.0129932         146.939
0.563                   -1.02368        -154.541         -52.9693         66.5327         -52.9688         66.5356        -0.013122         146.868
0.564                   -1.05031        -155.091         -52.8368         64.2628         -52.8363         64.2657       -0.0132531         146.796
0.565                   -1.07725        -155.643         -52.7058         61.9913         -52.7053         61.9943       -0.0133863         146.725
0.566                   -1.10448        -156.195         -52.5764         59.7188         -52.5759         59.7218       -0.0135218         146.653
0.567                   -1.13201        -156.749         -52.4486         57.4457         -52.4481         57.4487       -0.0136596         146.581
0.568                   -1.15982        -157.304         -52.3224         55.1725         -52.3218         55.1755       -0.0137997         146.509
0.569                   -1.18792        -157.861         -52.1977         52.8999         -52.1972         52.9028       -0.0139421         146.437
0.57                    -1.21628        -158.419         -52.0747         50.6281         -52.0741         50.6311       -0.0140867         146.365
0.571                   -1.24492        -158.978         -51.9531         48.3578         -51.9525         48.3607       -0.0142336         146.292
0.572                   -1.27382        -159.539         -51.8331         46.0893         -51.8325         46.0922       -0.0143828          146.22
0.573                   -1.30298        -160.102         -51.7146         43.8231          -51.714          43.826       -0.0145343         146.147
0.574                   -1.33239        -160.667         -51.5976         41.5596          -51.597         41.5624       -0.0146879         146.074
0.575                   -1.36205        -161.233         -51.4821         39.2992         -51.4815          39.302       -0.0148438         146.001
0.576                   -1.39196        -161.801          -51.368         37.0423         -51.3674         37.0449       -0.0150018         145.928
0.577                   -1.42211        -162.371         -51.2554         34.7891         -51.2547         34.7917       -0.0151619         145.855
0.578                   -1.45249        -162.943          -51.144         32.5401         -51.1434         32.5426       -0.0153242         145.782
0.579                   -1.48312        -163.518          -51.034         30.2954         -51.0334         30.2979       -0.0154884         145.708
0.58                    -1.51397        -164.095         -50.9254         28.0555         -50.9248         28.0579       -0.0156546         145.634
0.581                   -1.54506        -164.674         -50.8179         25.8205         -50.8173         25.8228       -0.0158228         145.561
0.582                   -1.57637        -165.256         -50.7117         23.5907         -50.7111         23.5928       -0.0159929         145.487
0.583                   -1.60791         -165.84         -50.6066         21.3662          -50.606         21.3682       -0.0161647         145.413
0.584                   -1.63969        -166.427         -50.5027         19.1472         -50.5021         19.1491       -0.0163384         145.338
0.585                   -1.67169        -167.018         -50.3998         16.9338         -50.3993         16.9357       -0.0165139         145.264
0.586                   -1.70392        -167.611         -50.2979         14.7263         -50.2974         14.7281        -0.016691         145.189
0.587                   -1.73639        -168.208         -50.1971         12.5247         -50.1966         12.5263       -0.0168698         145.115
0.588                    -1.7691        -168.808         -50.0971          10.329         -50.0967         10.3305       -0.0170502          145.04
0.589                   -1.80205        -169.411         -49.9981         8.13926         -49.9976         8.14071       -0.0172322         144.965
0.59                    -1.83525        -170.019         -49.8999         5.95559         -49.8995         5.95694       -0.0174158         144.889
0.591                   -1.86871         -170.63         -49.8025         3.77797         -49.8021         3.77922        -0.017601         144.814
0.592                   -1.90243        -171.245         -49.7059         1.60637         -49.7055         1.60753       -0.0177877         144.738
0.593                   -1.93643        -171.865           -49.61        -0.55923         -49.6096       -0.558167       -0.0179759         144.663
0.594                   -1.97072         -172.49         -49.5147        -2.71889         -49.5143        -2.71792       -0.0181658         144.587
0.595                   -2.00531        -173.119         -49.4201        -4.87268         -49.4197        -4.87179       -0.0183571         144.511
0.596                   -2.04023        -173.753          -49.326        -7.02068         -49.3257        -7.01988       -0.0185501         144.434
0.597                   -2.07548        -174.392         -49.2325        -9.16299         -49.2323        -9.16227       -0.0187447         144.358
0.598                   -2.11109        -175.037         -49.1396        -11.2997         -49.1393        -11.2991        -0.018941         144.281
0.599                   -2.14708        -175.687         -49.0471         -13.431         -49.0468        -13.4305       -0.0191389         144.205
0.6                     -2.18348        -176.344          -48.955         -15.557         -48.9548        -15.5565       -0.0193386         144.128
0.601                   -2.22032        -177.006         -48.8634        -17.6779         -48.8632        -17.6774       -0.0195401          144.05
0.602                   -2.25763        -177.675         -48.7721        -19.7937          -48.772        -19.7933       -0.0197434         143.973
0.603                   -2.29544        -178.351         -48.6813        -21.9047         -48.6811        -21.9044       -0.0199486         143.895
0.604                    -2.3338        -179.034         -48.5907        -24.0111         -48.5906        -24.0109       -0.0201558         143.818
0.605                   -2.37275        -179.724         -48.5004        -26.1131         -48.5003        -26.1129       -0.0203651          143.74
0.606                   -2.41233         179.579         -48.4105        -28.2107         -48.4104        -28.2106       -0.0205765         143.661
0.607                   -2.45259         178.874         -48.3208        -30.3043         -48.3207        -30.3042       -0.0207902         143.583
0.608                    -2.4936         178.161         -48.2313         -32.394         -48.2313        -32.3939       -0.0210061         143.504
0.609                   -2.53541          177.44         -48.1421        -34.4801         -48.1421          -34.48       -0.0212244         143.426
0.61                    -2.57808          176.71         -48.0531        -36.5626         -48.0531        -36.5626       -0.0214452         143.347
0.611                    -2.6217         175.972         -47.9643        -38.6419         -47.9643        -38.6419       -0.0216685         143.267
0.612                   -2.66632         175.224         -47.8757        -40.7181         -47.8757        -40.7182       -0.0218945         143.188
0.613                   -2.71205         174.468         -47.7873        -42.7915         -47.7873        -42.7916       -0.0221233         143.108
0.614                   -2.75895         173.702         -47.6991        -44.8622         -47.6991        -44.8623       -0.0223548         143.028
0.615                   -2.80714         172.927          -47.611        -46.9304         -47.6111        -46.9305       -0.0225893         142.948
0.616                    -2.8567         172.142         -47.5232        -48.9964         -47.5232        -48.9965       -0.0228269         142.868
0.617                   -2.90774         171.347         -47.4355        -51.0602         -47.4356        -51.0604       -0.0230675         142.787
0.618                   -2.96038         170.543          -47.348        -53.1222         -47.3481        -53.1224       -0.0233114         142.706
0.619                   -3.01474         169.728         -47.2607        -55.1825         -47.2607        -55.1826       -0.0235586         142.625
0.62                    -3.07093         168.904         -47.1735        -57.2411         -47.1736        -57.2413       -0.0238093         142.544
0.621                   -3.12909          168.07         -47.0866        -59.2984         -47.0867        -59.2986       -0.0240634         142.462
0.622                   -3.18935         167.227         -46.9998        -61.3545         -46.9999        -61.3547       -0.0243211          142.38
0.623                   -3.25185         166.374         -46.9133        -63.4095         -46.9134        -63.4097       -0.0245826         142.298
0.624                   -3.31675         165.512          -46.827        -65.4635         -46.8271        -65.4637       -0.0248479         142.216
0.625                   -3.38417         164.642         -46.7409        -67.5167          -46.741        -67.5169        -0.025117         142.133
0.626                   -3.45429         163.763          -46.655        -69.5692         -46.6552        -69.5695       -0.0253902          142.05
0.627                   -3.52724         162.876         -46.5695        -71.6211         -46.5696        -71.6214       -0.0256675         141.967
0.628                   -3.60318         161.982         -46.4841        -73.6726         -46.4842        -73.6728        -0.025949         141.884
0.629                   -3.68227         161.081         -46.3991        -75.7236         -46.3992        -75.7238       -0.0262348           141.8
0.63                    -3.76465         160.175         -46.3144        -77.7742         -46.3145        -77.7745       -0.0265251         141.716
0.631                   -3.85047         159.265           -46.23        -79.8246         -46.2301        -79.8249       -0.0268198         141.632
0.632                   -3.93986          158.35         -46.1459        -81.8747          -46.146         -81.875       -0.0271192         141.548
0.633                   -4.03296         157.433         -46.0622        -83.9247         -46.0623         -83.925       -0.0274233         141.463
0.634                   -4.12989         156.515         -45.9789        -85.9744         -45.9789        -85.9748       -0.0277322         141.378
0.635                   -4.23076         155.598         -45.8959         -88.024          -45.896        -88.0244       -0.0280461         141.292
0.636                   -4.33565         154.682         -45.8134        -90.0734         -45.8134        -90.0738       -0.0283649         141.207
0.637                   -4.44466         153.769         -45.7312        -92.1226         -45.7313         -92.123        -0.028689         141.121
0.638                   -4.55782         152.861         -45.6496        -94.1716         -45.6496         -94.172       -0.0290183         141.034
0.639                    -4.6752          151.96         -45.5683        -96.2203         -45.5684        -96.2208        -0.029353         140.948
0.64                    -4.79678         151.068         -45.4876        -98.2687         -45.4876        -98.2691       -0.0296931         140.861
0.641                   -4.92258         150.185         -45.4073        -100.317         -45.4074        -100.317       -0.0300389         140.774
0.642                   -5.05254         149.315         -45.3276        -102.364         -45.3276        -102.365       -0.0303903         140.686
0.643                   -5.18661          148.46         -45.2484        -104.411         -45.2484        -104.412       -0.0307476         140.598
0.644                   -5.32469          147.62         -45.1697        -106.457         -45.1697        -106.458       -0.0311108          140.51
0.645                   -5.46667         146.798         -45.0916        -108.502         -45.0916        -108.503       -0.0314801         140.422
0.646                    -5.6124         145.996          -45.014        -110.547          -45.014        -110.548       -0.0318556         140.333
0.647                   -5.76171         145.215          -44.937         -112.59          -44.937        -112.591       -0.0322374         140.244
0.648                    -5.9144         144.458         -44.8606        -114.632         -44.8605        -114.633       -0.0326256         140.154
0.649                   -6.07024         143.724         -44.7847        -116.673         -44.7847        -116.673       -0.0330204         140.064
0.65                    -6.22899         143.017         -44.7095        -118.712         -44.7094        -118.712       -0.0334219         139.974
0.651                   -6.39039         142.337         -44.6348        -120.749         -44.6348         -120.75       -0.0338303         139.883
0.652                   -6.55415         141.685         -44.5607        -122.784         -44.5607        -122.785       -0.0342456         139.792
0.653                   -6.71997         141.062         -44.4872        -124.817         -44.4872        -124.818        -0.034668         139.701
0.654                   -6.88756         140.469         -44.4143        -126.848         -44.4143        -126.849       -0.0350976         139.609
0.655                    -7.0566         139.907          -44.342        -128.876          -44.342        -128.877       -0.0355347         139.517
0.656                   -7.22677         139.374         -44.2703        -130.901         -44.2702        -130.902       -0.0359792         139.425
0.657                   -7.39775         138.872         -44.1991        -132.923         -44.1991        -132.924       -0.0364315         139.332
0.658                   -7.56923         138.401         -44.1285        -134.942         -44.1284        -134.943       -0.0368916         139.238
0.659                    -7.7409          137.96         -44.0584        -136.957         -44.0584        -136.958       -0.0373597         139.145
0.66                    -7.91247         137.549         -43.9889        -138.969         -43.9888         -138.97        -0.037836         139.051
0.661                   -8.08365         137.166         -43.9199        -140.977         -43.9198        -140.978       -0.0383206         138.956
0.662                   -8.25416         136.812         -43.8513         -142.98         -43.8512        -142.982       -0.0388136         138.861
0.663                   -8.42376         136.485         -43.7832         -144.98         -43.7831        -144.981       -0.0393153         138.766
0.664                   -8.59222         136.185         -43.7155        -146.974         -43.7155        -146.975       -0.0398259          138.67
0.665                   -8.75931         135.909         -43.6483        -148.964         -43.6482        -148.965       -0.0403454         138.574
0.666                   -8.92486         135.657         -43.5814        -150.949         -43.5814         -150.95       -0.0408742         138.477
0.667                   -9.08868         135.427         -43.5149        -152.928         -43.5148         -152.93       -0.0414123          138.38
0.668                   -9.25064         135.218         -43.4486        -154.903         -43.4486        -154.904         -0.04196         138.282
0.669                   -9.41062         135.029         -43.3827        -156.871         -43.3826        -156.872       -0.0425174         138.184
0.67                    -9.56851         134.857          -43.317        -158.834         -43.3169        -158.835       -0.0430848         138.086
0.671                   -9.72424         134.702         -43.2514        -160.791         -43.2514        -160.792       -0.0436623         137.987
0.672                   -9.87777         134.562          -43.186        -162.742          -43.186        -162.743       -0.0442503         137.887
0.673                    -10.029         134.435         -43.1207        -164.686         -43.1207        -164.687       -0.0448488         137.787
0.674                   -10.1781          134.32         -43.0555        -166.625         -43.0555        -166.625       -0.0454581         137.687
0.675                   -10.3249         134.216         -42.9902        -168.556         -42.9902        -168.557       -0.0460785         137.585
0.676                   -10.4694         134.121          -42.925        -170.482          -42.925        -170.482       -0.0467101         137.484
0.677                   -10.6118         134.034         -42.8596          -172.4         -42.8596        -172.401       -0.0473532         137.382
0.678                    -10.752         133.954          -42.794        -174.312          -42.794        -174.312       -0.0480081         137.279
0.679                   -10.8902         133.879         -42.7283        -176.218         -42.7283        -176.218        -0.048675         137.176
0.68                    -11.0265         133.809         -42.6623        -178.116         -42.6623        -178.116       -0.0493542         137.072
0.681                   -11.1608         133.743          -42.596         179.992          -42.596         179.992       -0.0500458         136.968
0.682                   -11.2934         133.679         -42.5293         178.107         -42.5293         178.108       -0.0507503         136.863
0.683                   -11.4244         133.616         -42.4621         176.229         -42.4622         176.229       -0.0514679         136.757
0.684                   -11.5538         133.555         -42.3945         174.357         -42.3945         174.358       -0.0521988         136.651
0.685                   -11.6817         133.494         -42.3264         172.492         -42.3264         172.493       -0.0529434         136.545
0.686                   -11.8084         133.433         -42.2576         170.634         -42.2576         170.635        -0.053702         136.437
0.687                    -11.934         133.372         -42.1882         168.782         -42.1882         168.783       -0.0544749         136.329
0.688                   -12.0585         133.309          -42.118         166.936         -42.1181         166.937       -0.0552624         136.221
0.689                   -12.1821         133.245         -42.0471         165.096         -42.0471         165.097       -0.0560648         136.112
0.69                    -12.3051          133.18         -41.9754         163.262         -41.9754         163.263       -0.0568826         136.002
0.691                   -12.4274         133.112         -41.9028         161.433         -41.9028         161.435        -0.057716         135.891
0.692                   -12.5493         133.043         -41.8293          159.61         -41.8292         159.612       -0.0585655          135.78
0.693                   -12.6709         132.973         -41.7548         157.792         -41.7547         157.795       -0.0594313         135.668
0.694                   -12.7923           132.9         -41.6792          155.98         -41.6792         155.982        -0.060314         135.555
0.695                   -12.9138         132.826         -41.6026         154.171         -41.6025         154.174       -0.0612139         135.442
0.696                   -13.0353          132.75         -41.5248         152.368         -41.5248          152.37       -0.0621314         135.328
0.697                   -13.1572         132.674         -41.4459         150.568         -41.4458         150.571        -0.063067         135.213