! TOUCHSTONE file generated by CST MICROWAVE STUDIO
! Date and time: Mon Oct 26 12:09:07 2020
! Project name: Scenario_1_Circular_Tissue_out_of_Line_v2.cst
! Parameters = {dy1=173; L_HA=400; MT=2.54; Rad_Dielectric=30; Rad_Lower=7.3; Rad_Upper=30; a_HA=580; a_WG=246; b_HA=500; b_WG=121; c_HA=0; c_WG=187; d_feed=85; dx1=173; h_feed=15; h_lower=18; h_upper=40}
! Header version: 2018
! Port assignment regex: !\s*Touchstone port\s*([0-9]+)\s*=\s*(CST MWS port|CST DS port)\s*([0-9]+|Zmin|Zmax)\s*\(\"(.*)\"\)(\s*mode\s*([0-9]+))?.*
! Touchstone port assignment:
! Touchstone port 1 = CST MWS port 1 ("")
! Touchstone port 2 = CST MWS port 2 ("")
# GHz S DB R 50
0.5                    -0.123298        -122.602         -59.1799          122.31         -59.1575         122.255      -0.00676009         151.125
0.501                  -0.130852        -123.057         -58.9437         121.299         -58.9244         121.299      -0.00681695         151.059
0.502                  -0.138629        -123.514         -58.7083         120.266         -58.6917         120.318      -0.00687494         150.994
0.503                  -0.146635        -123.972         -58.4738         119.213         -58.4595         119.313      -0.00693408         150.928
0.504                  -0.154872        -124.432           -58.24         118.139         -58.2278         118.284      -0.00699438         150.862
0.505                  -0.163347        -124.894         -58.0071         117.045         -57.9966         117.231      -0.00705583         150.797
0.506                  -0.172064        -125.358         -57.7751          115.93          -57.766         116.155      -0.00711846         150.731
0.507                  -0.181028        -125.823         -57.5439         114.795          -57.536         115.056      -0.00718226         150.665
0.508                  -0.190244         -126.29         -57.3137         113.639         -57.3066         113.933      -0.00724726         150.599
0.509                  -0.199717        -126.759         -57.0843         112.464         -57.0779         112.787      -0.00731345         150.533
0.51                   -0.209452         -127.23         -56.8558         111.268           -56.85         111.619      -0.00738085         150.467
0.511                  -0.219455        -127.702         -56.6283         110.052         -56.6228         110.427      -0.00744948         150.401
0.512                  -0.229733        -128.177         -56.4018         108.816         -56.3964         109.213      -0.00751933         150.334
0.513                  -0.240289        -128.653         -56.1763          107.56         -56.1708         107.976      -0.00759043         150.268
0.514                  -0.251132        -129.131         -55.9519         106.284         -55.9462         106.717      -0.00766279         150.202
0.515                  -0.262266         -129.61         -55.7285         104.988         -55.7225         105.436      -0.00773641         150.135
0.516                  -0.273698        -130.092         -55.5062         103.672         -55.4998         104.133      -0.00781131         150.068
0.517                  -0.285435        -130.575         -55.2851         102.337         -55.2781         102.808      -0.00788751         150.002
0.518                  -0.297483        -131.059         -55.0651         100.982         -55.0576          101.46      -0.00796501         149.935
0.519                  -0.309848        -131.546         -54.8464         99.6076         -54.8382         100.092      -0.00804384         149.868
0.52                   -0.322537        -132.034          -54.629         98.2138         -54.6201          98.702      -0.00812401         149.801
0.521                  -0.335558        -132.524         -54.4129         96.8007         -54.4033         97.2908      -0.00820553         149.734
0.522                  -0.348916        -133.016         -54.1981         95.3685         -54.1878         95.8588      -0.00828842         149.667
0.523                  -0.362619        -133.509         -53.9848         93.9172         -53.9737          94.406       -0.0083727           149.6
0.524                  -0.376673        -134.004          -53.773         92.4472         -53.7611         92.9327      -0.00845839         149.532
0.525                  -0.391086        -134.501         -53.5627         90.9585           -53.55         91.4392      -0.00854551         149.465
0.526                  -0.405863        -134.999          -53.354         89.4513         -53.3406         89.9258      -0.00863407         149.398
0.527                  -0.421012        -135.498          -53.147         87.9259         -53.1328         88.3928       -0.0087241          149.33
0.528                   -0.43654        -135.999         -52.9416         86.3825         -52.9267         86.8405      -0.00881562         149.262
0.529                  -0.452451        -136.501         -52.7381         84.8214         -52.7225         85.2693      -0.00890865         149.195
0.53                   -0.468753        -137.005         -52.5363         83.2429         -52.5202         83.6795      -0.00900322         149.127
0.531                   -0.48545         -137.51         -52.3365         81.6472         -52.3197         82.0716      -0.00909935         149.059
0.532                  -0.502549        -138.016         -52.1386         80.0347         -52.1214         80.4459      -0.00919706         148.991
0.533                  -0.520053        -138.524         -51.9427         78.4057          -51.925          78.803      -0.00929639         148.923
0.534                  -0.537968        -139.032         -51.7488         76.7607         -51.7309         77.1432      -0.00939737         148.854
0.535                  -0.556296        -139.542         -51.5571            75.1         -51.5389         75.4671      -0.00950002         148.786
0.536                  -0.575039        -140.052         -51.3676         73.4241         -51.3492         73.7752      -0.00960438         148.718
0.537                  -0.594201        -140.563         -51.1803         71.7334         -51.1618         72.0681      -0.00971047         148.649
0.538                  -0.613782        -141.075         -50.9953         70.0284         -50.9768         70.3463      -0.00981834          148.58
0.539                  -0.633781        -141.588         -50.8126         68.3097         -50.7943         68.6104      -0.00992801         148.512
0.54                   -0.654197        -142.101         -50.6324         66.5777         -50.6142          66.861       -0.0100395         148.443
0.541                  -0.675028        -142.615         -50.4546         64.8329         -50.4367         65.0989       -0.0101529         148.374
0.542                  -0.696269        -143.129         -50.2793         63.0761         -50.2617         63.3245       -0.0102683         148.305
0.543                  -0.717913        -143.643         -50.1065         61.3077         -50.0894         61.5387       -0.0103855         148.236
0.544                  -0.739953        -144.157         -49.9362         59.5284         -49.9197         59.7421       -0.0105048         148.166
0.545                   -0.76238        -144.672         -49.7686         57.7388         -49.7527         57.9354       -0.0106262         148.097
0.546                  -0.785182        -145.186         -49.6036         55.9396         -49.5884         56.1193       -0.0107496         148.028
0.547                  -0.808345          -145.7         -49.4412         54.1314         -49.4268         54.2946       -0.0108752         147.958
0.548                  -0.831852        -146.213         -49.2815         52.3149          -49.268         52.4619       -0.0110029         147.888
0.549                  -0.855686        -146.727         -49.1245         50.4907         -49.1119         50.6221       -0.0111329         147.818
0.55                   -0.879825        -147.239         -48.9702         48.6596         -48.9586         48.7759       -0.0112651         147.749
0.551                  -0.904246        -147.751         -48.8186         46.8223          -48.808          46.924       -0.0113997         147.679
0.552                  -0.928923        -148.263         -48.6697         44.9795         -48.6602         45.0671       -0.0115366         147.608
0.553                  -0.953827        -148.773         -48.5235         43.1318         -48.5151          43.206       -0.0116759         147.538
0.554                  -0.978929        -149.283           -48.38         41.2799         -48.3728         41.3414       -0.0118177         147.468
0.555                   -1.00419        -149.792         -48.2391         39.4246         -48.2331          39.474       -0.0119619         147.397
0.556                   -1.02959          -150.3         -48.1009         37.5664         -48.0961         37.6045       -0.0121086         147.327
0.557                   -1.05508        -150.807         -47.9653         35.7061         -47.9617         35.7336       -0.0122579         147.256
0.558                   -1.08061        -151.313         -47.8324         33.8443         -47.8299         33.8619       -0.0124097         147.185
0.559                   -1.10617        -151.818         -47.7019         31.9817         -47.7007         31.9901        -0.012564         147.114
0.56                    -1.13169        -152.323          -47.574         30.1188          -47.574         30.1188        -0.012721         147.043
0.561                   -1.15714        -152.827         -47.4485         28.2563         -47.4497         28.2486       -0.0128805         146.972
0.562                   -1.18249        -153.331         -47.3255         26.3947         -47.3279         26.3801       -0.0130425         146.901
0.563                   -1.20767        -153.834         -47.2049         24.5346         -47.2084         24.5137       -0.0132071         146.829
0.564                   -1.23267        -154.337         -47.0865         22.6765         -47.0911         22.6501       -0.0133741         146.758
0.565                   -1.25744         -154.84         -46.9705         20.8209         -46.9761         20.7896       -0.0135436         146.686
0.566                   -1.28193        -155.344         -46.8566         18.9682         -46.8633         18.9328       -0.0137155         146.614
0.567                   -1.30613        -155.849         -46.7449          17.119         -46.7525           17.08       -0.0138897         146.542
0.568                   -1.32999        -156.354         -46.6352         15.2736         -46.6438         15.2317       -0.0140661          146.47
0.569                    -1.3535        -156.861         -46.5276         13.4325          -46.537         13.3881       -0.0142446         146.398
0.57                    -1.37663         -157.37         -46.4218         11.5958         -46.4321         11.5496       -0.0144251         146.326
0.571                   -1.39936        -157.881          -46.318         9.76411         -46.3289         9.71652       -0.0146076         146.254
0.572                   -1.42169        -158.394         -46.2159         7.93755         -46.2276         7.88908       -0.0147917         146.181
0.573                    -1.4436        -158.911         -46.1156         6.11644         -46.1279         6.06753       -0.0149776         146.108
0.574                   -1.46511        -159.431         -46.0169           4.301         -46.0297         4.25205       -0.0151649         146.036
0.575                   -1.48621        -159.955         -45.9198         2.49143         -45.9331         2.44282       -0.0153535         145.963
0.576                   -1.50691        -160.484         -45.8242        0.687916          -45.838        0.639971       -0.0155434          145.89
0.577                   -1.52725        -161.017         -45.7301         -1.1094         -45.7442        -1.15638       -0.0157344         145.817
0.578                   -1.54723        -161.556         -45.6373         -2.9004         -45.6517        -2.94614       -0.0159264         145.743
0.579                    -1.5669        -162.101         -45.5459        -4.68498         -45.5604        -4.72926       -0.0161193          145.67
0.58                    -1.58629        -162.651         -45.4556        -6.46308         -45.4704        -6.50569       -0.0163129         145.596
0.581                   -1.60543        -163.209         -45.3666        -8.23464         -45.3814        -8.27541       -0.0165073         145.522
0.582                   -1.62438        -163.773         -45.2786        -9.99966         -45.2935        -10.0384       -0.0167023         145.449
0.583                   -1.64319        -164.345         -45.1918        -11.7581         -45.2066        -11.7948       -0.0168979         145.374
0.584                   -1.66191        -164.924         -45.1058          -13.51         -45.1206        -13.5445       -0.0170941           145.3
0.585                   -1.68059        -165.511         -45.0209        -15.2554         -45.0355        -15.2877       -0.0172909         145.226
0.586                   -1.69929        -166.107         -44.9368        -16.9944         -44.9513        -17.0244       -0.0174884         145.151
0.587                   -1.71808        -166.711         -44.8535         -18.727         -44.8677        -18.7547       -0.0176864         145.077
0.588                   -1.73702        -167.324         -44.7709        -20.4533          -44.785        -20.4787       -0.0178852         145.002
0.589                   -1.75617        -167.945         -44.6891        -22.1734         -44.7029        -22.1965       -0.0180848         144.927
0.59                    -1.77561        -168.576          -44.608        -23.8874         -44.6214        -23.9083       -0.0182852         144.852
0.591                   -1.79538        -169.216         -44.5275        -25.5955         -44.5405        -25.6142       -0.0184865         144.776
0.592                   -1.81557        -169.865         -44.4476        -27.2977         -44.4602        -27.3143       -0.0186889         144.701
0.593                   -1.83623        -170.524         -44.3682        -28.9943         -44.3804        -29.0089       -0.0188925         144.625
0.594                   -1.85744        -171.192         -44.2894        -30.6854         -44.3011         -30.698       -0.0190974         144.549
0.595                   -1.87925        -171.869          -44.211        -32.3711         -44.2222        -32.3819       -0.0193036         144.473
0.596                   -1.90173        -172.556          -44.133        -34.0516         -44.1438        -34.0606       -0.0195114         144.397
0.597                   -1.92495        -173.253         -44.0555        -35.7271         -44.0658        -35.7345       -0.0197208         144.321
0.598                   -1.94896        -173.959         -43.9784        -37.3978         -43.9881        -37.4036        -0.019932         144.244
0.599                   -1.97383        -174.675         -43.9016        -39.0638         -43.9108        -39.0682       -0.0201451         144.167
0.6                     -1.99962          -175.4         -43.8251        -40.7253         -43.8339        -40.7285       -0.0203602          144.09
0.601                   -2.02638        -176.134          -43.749        -42.3825         -43.7572        -42.3846       -0.0205773         144.013
0.602                   -2.05419        -176.878         -43.6732        -44.0356         -43.6809        -44.0367       -0.0207968         143.936
0.603                   -2.08309        -177.631         -43.5977        -45.6848         -43.6048        -45.6849       -0.0210185         143.858
0.604                   -2.11314        -178.394         -43.5225        -47.3303         -43.5291        -47.3296       -0.0212427         143.781
0.605                   -2.14441        -179.166         -43.4475        -48.9721         -43.4536        -48.9708       -0.0214695         143.703
0.606                   -2.17694        -179.947         -43.3727        -50.6107         -43.3784        -50.6088       -0.0216989         143.624
0.607                    -2.2108         179.264         -43.2983         -52.246         -43.3034        -52.2437        -0.021931         143.546
0.608                   -2.24604         178.465          -43.224        -53.8783         -43.2287        -53.8757       -0.0221659         143.468
0.609                   -2.28271         177.657           -43.15        -55.5077         -43.1542        -55.5049       -0.0224038         143.389
0.61                    -2.32088         176.841         -43.0763        -57.1345           -43.08        -57.1315       -0.0226446          143.31
0.611                   -2.36061         176.016         -43.0028        -58.7588         -43.0061        -58.7558       -0.0228885         143.231
0.612                   -2.40193         175.182         -42.9295        -60.3807         -42.9324        -60.3777       -0.0231356         143.151
0.613                   -2.44493          174.34         -42.8565        -62.0004          -42.859        -61.9975       -0.0233859         143.071
0.614                   -2.48965          173.49         -42.7837         -63.618         -42.7859        -63.6153       -0.0236394         142.992
0.615                   -2.53615         172.632         -42.7112        -65.2338          -42.713        -65.2312       -0.0238964         142.911
0.616                    -2.5845         171.766         -42.6389        -66.8477         -42.6404        -66.8454       -0.0241568         142.831
0.617                   -2.63474         170.892         -42.5669          -68.46         -42.5682        -68.4579       -0.0244207          142.75
0.618                   -2.68695          170.01         -42.4953        -70.0707         -42.4962         -70.069       -0.0246882          142.67
0.619                   -2.74118         169.121         -42.4239        -71.6799         -42.4246        -71.6786       -0.0249593         142.589
0.62                    -2.79751         168.224         -42.3528        -73.2879         -42.3533        -73.2868       -0.0252341         142.507
0.621                   -2.85598         167.321          -42.282        -74.8945         -42.2823        -74.8939       -0.0255127         142.426
0.622                   -2.91667          166.41         -42.2116           -76.5         -42.2117        -76.4997       -0.0257952         142.344
0.623                   -2.97964         165.493         -42.1415        -78.1044         -42.1415        -78.1044       -0.0260815         142.262
0.624                   -3.04497          164.57         -42.0718        -79.7078         -42.0717        -79.7081       -0.0263718          142.18
0.625                   -3.11271          163.64         -42.0025        -81.3102         -42.0023        -81.3107       -0.0266662         142.097
0.626                   -3.18294         162.704         -41.9336        -82.9116         -41.9333        -82.9124       -0.0269647         142.015
0.627                   -3.25573         161.763         -41.8651        -84.5121         -41.8648        -84.5131       -0.0272673         141.931
0.628                   -3.33114         160.816         -41.7971        -86.1117         -41.7967        -86.1129       -0.0275742         141.848
0.629                   -3.40926         159.865         -41.7295        -87.7104         -41.7291        -87.7117       -0.0278855         141.765
0.63                    -3.49015         158.908         -41.6624        -89.3083          -41.662        -89.3096       -0.0282011         141.681
0.631                   -3.57389         157.948         -41.5958        -90.9052         -41.5954        -90.9065       -0.0285211         141.597
0.632                   -3.66054         156.983         -41.5297        -92.5012         -41.5294        -92.5024       -0.0288457         141.512
0.633                    -3.7502         156.015         -41.4641        -94.0963         -41.4639        -94.0973       -0.0291749         141.428
0.634                   -3.84293         155.044         -41.3991        -95.6904         -41.3989        -95.6911       -0.0295088         141.343
0.635                    -3.9388          154.07         -41.3346        -97.2834         -41.3346        -97.2839       -0.0298475         141.257
0.636                   -4.03791         153.095         -41.2708        -98.8754         -41.2708        -98.8754        -0.030191         141.172
0.637                   -4.14031         152.117         -41.2075        -100.466         -41.2076        -100.466       -0.0305394         141.086
0.638                   -4.24609         151.139         -41.1449        -102.056         -41.1451        -102.055       -0.0308929             141
0.639                   -4.35532          150.16         -41.0829        -103.644         -41.0832        -103.642       -0.0312514         140.914
0.64                    -4.46808         149.182         -41.0215         -105.23          -41.022        -105.228       -0.0316152         140.827
0.641                   -4.58445         148.204         -40.9608        -106.816         -40.9614        -106.812       -0.0319842          140.74
0.642                   -4.70449         147.228         -40.9008        -108.399         -40.9015        -108.395       -0.0323586         140.652
0.643                   -4.82829         146.254         -40.8415        -109.981         -40.8423        -109.976       -0.0327384         140.565
0.644                   -4.95592         145.284         -40.7828         -111.56         -40.7838        -111.554       -0.0331238         140.477
0.645                   -5.08745         144.317         -40.7249        -113.138          -40.726        -113.131       -0.0335149         140.388
0.646                   -5.22294         143.354         -40.6677        -114.713         -40.6689        -114.705       -0.0339117           140.3
0.647                   -5.36247         142.398         -40.6112        -116.286         -40.6125        -116.277       -0.0343144         140.211
0.648                   -5.50611         141.448         -40.5554        -117.857         -40.5569        -117.846       -0.0347231         140.121
0.649                   -5.65392         140.505         -40.5004        -119.424         -40.5019        -119.412       -0.0351379         140.032
0.65                    -5.80595         139.571         -40.4461        -120.989         -40.4477        -120.976       -0.0355589         139.942
0.651                   -5.96228         138.646         -40.3925        -122.551         -40.3942        -122.536       -0.0359862         139.851
0.652                   -6.12296         137.732         -40.3397        -124.109         -40.3415        -124.093         -0.03642         139.761
0.653                   -6.28803          136.83         -40.2876        -125.664         -40.2895        -125.647       -0.0368603         139.669
0.654                   -6.45756         135.941         -40.2362        -127.216         -40.2381        -127.197       -0.0373073         139.578
0.655                   -6.63159         135.067         -40.1855        -128.763         -40.1875        -128.743       -0.0377612         139.486
0.656                   -6.81015         134.207         -40.1356        -130.307         -40.1376        -130.286        -0.038222         139.394
0.657                   -6.99328         133.366         -40.0864        -131.846         -40.0884        -131.824       -0.0386899         139.301
0.658                   -7.18102         132.542         -40.0378        -133.382         -40.0399        -133.358       -0.0391651         139.208
0.659                   -7.37339         131.739           -39.99        -134.912          -39.992        -134.887       -0.0396477         139.115
0.66                     -7.5704         130.957         -39.9428        -136.438         -39.9448        -136.411       -0.0401378         139.021
0.661                   -7.77207         130.199         -39.8962        -137.959         -39.8982        -137.931       -0.0406356         138.927
0.662                   -7.97839         129.466         -39.8503        -139.475         -39.8523        -139.446       -0.0411413         138.832
0.663                   -8.18937         128.759          -39.805        -140.985         -39.8069        -140.955        -0.041655         138.737
0.664                   -8.40497         128.082         -39.7603         -142.49         -39.7622         -142.46       -0.0421769         138.641
0.665                   -8.62518         127.435         -39.7162        -143.989          -39.718        -143.958       -0.0427071         138.545
0.666                   -8.84994         126.821         -39.6726        -145.483         -39.6743        -145.451       -0.0432459         138.449
0.667                   -9.07919         126.243         -39.6296        -146.971         -39.6312        -146.938       -0.0437934         138.352
0.668                   -9.31287         125.702          -39.587        -148.453         -39.5886        -148.419       -0.0443499         138.255
0.669                   -9.55087         125.201         -39.5449        -149.928         -39.5464        -149.894       -0.0449155         138.157
0.67                    -9.79307         124.742         -39.5033        -151.397         -39.5046        -151.363       -0.0454903         138.059
0.671                   -10.0393         124.328         -39.4621         -152.86         -39.4633        -152.825       -0.0460747          137.96
0.672                   -10.2895         123.962         -39.4212        -154.316         -39.4223        -154.281       -0.0466689         137.861
0.673                   -10.5433         123.646         -39.3808        -155.765         -39.3817         -155.73        -0.047273         137.761
0.674                   -10.8006         123.384         -39.3406        -157.207         -39.3414        -157.173       -0.0478873         137.661
0.675                    -11.061         123.178         -39.3007        -158.643         -39.3014        -158.608        -0.048512          137.56
0.676                   -11.3243         123.031          -39.261        -160.071         -39.2617        -160.037       -0.0491473         137.459
0.677                     -11.59         122.948         -39.2216        -161.492         -39.2221        -161.459       -0.0497936         137.357
0.678                   -11.8578          122.93         -39.1824        -162.906         -39.1827        -162.873        -0.050451         137.255
0.679                   -12.1271         122.982         -39.1433        -164.313         -39.1435        -164.281       -0.0511198         137.152
0.68                    -12.3973         123.105         -39.1043        -165.713         -39.1044        -165.681       -0.0518004         137.049
0.681                   -12.6679         123.304         -39.0653        -167.105         -39.0653        -167.074       -0.0524929         136.945
0.682                    -12.938         123.581         -39.0264         -168.49         -39.0263         -168.46       -0.0531976          136.84
0.683                    -13.207         123.939         -38.9875        -169.868         -38.9873        -169.839       -0.0539149         136.735
0.684                   -13.4738         124.381         -38.9485        -171.238         -38.9483         -171.21        -0.054645         136.629
0.685                   -13.7376         124.907         -38.9095        -172.601         -38.9091        -172.574       -0.0553883         136.523
0.686                   -13.9972         125.521         -38.8703        -173.956         -38.8699        -173.931       -0.0561451         136.416
0.687                   -14.2515         126.221         -38.8309        -175.304         -38.8305         -175.28       -0.0569157         136.308
0.688                   -14.4992         127.009         -38.7914        -176.645         -38.7909        -176.622       -0.0577005           136.2
0.689                   -14.7391         127.884         -38.7516        -177.978          -38.751        -177.956       -0.0584997         136.091
0.69                    -14.9698         128.843         -38.7115        -179.304         -38.7109        -179.284       -0.0593139         135.982
0.691                     -15.19         129.883         -38.6711         179.377         -38.6705         179.396       -0.0601433         135.872
0.692                   -15.3981         131.001         -38.6304         178.066         -38.6298         178.083       -0.0609883         135.761
0.693                   -15.5931         132.189         -38.5893         176.761         -38.5886         176.777       -0.0618494         135.649
0.694                   -15.7735         133.441         -38.5477         175.464         -38.5471         175.478       -0.0627269         135.537
0.695                   -15.9382         134.748         -38.5057         174.173          -38.505         174.186       -0.0636212         135.424
0.696                   -16.0863         136.102         -38.4631         172.889         -38.4625         172.901       -0.0645329          135.31
0.697                   -16.2169          137.49         -38.4201         171.613         -38.4195         171.623       -0.0654623         135.196