! TOUCHSTONE file generated by CST MICROWAVE STUDIO
! Date and time: Mon Oct 26 12:30:14 2020
! Project name: Scenario_1_Circular_Tissue_out_of_Line.cst
! Parameters = {dy1=174.23; L_HA=400; MT=2.54; Rad_Dielectric=30; Rad_Lower=7.3; Rad_Upper=30; a_HA=580; a_WG=246; b_HA=500; b_WG=121; c_HA=0; c_WG=187; d_feed=85; dx1=866; h_feed=15; h_lower=18; h_upper=40}
! Header version: 2018
! Port assignment regex: !\s*Touchstone port\s*([0-9]+)\s*=\s*(CST MWS port|CST DS port)\s*([0-9]+|Zmin|Zmax)\s*\(\"(.*)\"\)(\s*mode\s*([0-9]+))?.*
! Touchstone port assignment:
! Touchstone port 1 = CST MWS port 1 ("")
! Touchstone port 2 = CST MWS port 2 ("")
# GHz S DB R 50
0.5                    -0.143899        -122.379         -63.5317         94.6577         -63.4998         94.5329      -0.00743179         151.131
0.501                  -0.151957        -122.824         -63.4364         92.3666         -63.4188         92.2905      -0.00750631         151.065
0.502                  -0.160154         -123.27         -63.3372          90.068         -63.3338         90.0366      -0.00758121             151
0.503                  -0.168488        -123.717         -63.2342         87.7627         -63.2449         87.7722      -0.00765649         150.935
0.504                  -0.176956        -124.165         -63.1275         85.4516         -63.1521          85.498      -0.00773217         150.869
0.505                  -0.185558        -124.614          -63.017         83.1355         -63.0554          83.215      -0.00780825         150.804
0.506                   -0.19429        -125.065         -62.9029         80.8153         -62.9547          80.924      -0.00788474         150.738
0.507                   -0.20315        -125.516         -62.7852         78.4916         -62.8503          78.626      -0.00796165         150.673
0.508                  -0.212138        -125.968          -62.664         76.1651         -62.7421         76.3217        -0.008039         150.607
0.509                   -0.22125        -126.422         -62.5395         73.8367         -62.6301          74.012      -0.00811679         150.541
0.51                   -0.230484        -126.877         -62.4117         71.5068         -62.5145         71.6977      -0.00819503         150.475
0.511                  -0.239839        -127.333         -62.2808         69.1761         -62.3954         69.3794      -0.00827373         150.409
0.512                  -0.249314         -127.79         -62.1468         66.8452         -62.2728         67.0579      -0.00835291         150.343
0.513                  -0.258905        -128.249         -62.0099         64.5144         -62.1468         64.7339      -0.00843258         150.277
0.514                  -0.268612        -128.709         -61.8702         62.1844         -62.0176          62.408      -0.00851274         150.211
0.515                  -0.278432         -129.17         -61.7278         59.8553         -61.8852         60.0808      -0.00859341         150.145
0.516                  -0.288365        -129.632         -61.5828         57.5277         -61.7497         57.7529       -0.0086746         150.078
0.517                  -0.298409        -130.096         -61.4355         55.2018         -61.6113         55.4246      -0.00875632         150.012
0.518                  -0.308562        -130.562         -61.2859         52.8779         -61.4701         53.0965      -0.00883858         149.945
0.519                  -0.318824        -131.029         -61.1341         50.5561         -61.3263          50.769      -0.00892139         149.878
0.52                   -0.329193        -131.497         -60.9803         48.2367         -61.1799         48.4423      -0.00900477         149.812
0.521                  -0.339669        -131.968         -60.8246         45.9197          -61.031         46.1169      -0.00908873         149.745
0.522                  -0.350251        -132.439         -60.6672         43.6053         -60.8799         43.7929      -0.00917328         149.678
0.523                  -0.360938        -132.913         -60.5082         41.2935         -60.7267         41.4706      -0.00925844         149.611
0.524                  -0.371731        -133.388         -60.3477         38.9843         -60.5714         39.1501      -0.00934421         149.544
0.525                  -0.382629        -133.865         -60.1858         36.6776         -60.4143         36.8316      -0.00943061         149.477
0.526                  -0.393632        -134.345         -60.0227         34.3735         -60.2554         34.5151      -0.00951765          149.41
0.527                  -0.404742        -134.826         -59.8585         32.0719         -60.0949         32.2008      -0.00960535         149.342
0.528                  -0.415959        -135.309         -59.6934         29.7726          -59.933         29.8885      -0.00969371         149.275
0.529                  -0.427284        -135.794         -59.5274         27.4755         -59.7697         27.5783      -0.00978277         149.207
0.53                   -0.438719        -136.281         -59.3606         25.1804         -59.6052         25.2701      -0.00987252          149.14
0.531                  -0.450266        -136.771         -59.1933         22.8873         -59.4396          22.964      -0.00996298         149.072
0.532                  -0.461927        -137.263         -59.0254         20.5959          -59.273         20.6596       -0.0100542         149.004
0.533                  -0.473705        -137.757         -58.8571         18.3061         -59.1056          18.357       -0.0101461         148.936
0.534                  -0.485605        -138.254         -58.6885         16.0176         -58.9376          16.056       -0.0102388         148.868
0.535                  -0.497629        -138.753         -58.5198         13.7302         -58.7689         13.7565       -0.0103322           148.8
0.536                  -0.509782        -139.255         -58.3509         11.4437         -58.5997         11.4582       -0.0104265         148.732
0.537                  -0.522071        -139.759         -58.1821         9.15789         -58.4302           9.161       -0.0105215         148.664
0.538                    -0.5345        -140.267         -58.0134         6.87255         -58.2604         6.86467       -0.0106174         148.595
0.539                  -0.547076        -140.777         -57.8449         4.58745         -58.0905         4.56903       -0.0107141         148.527
0.54                   -0.559807         -141.29         -57.6766         2.30236         -57.9205         2.27386       -0.0108117         148.458
0.541                  -0.572702        -141.807         -57.5088         0.01707         -57.7506      -0.0210518       -0.0109101         148.389
0.542                  -0.585769        -142.326         -57.3414        -2.26864         -57.5809        -2.31591       -0.0110094         148.321
0.543                  -0.599019        -142.849         -57.1745        -4.55498         -57.4114        -4.61093       -0.0111097         148.252
0.544                  -0.612464        -143.375         -57.0082        -6.84215         -57.2422        -6.90632       -0.0112108         148.183
0.545                  -0.626115        -143.905         -56.8426        -9.13036         -57.0735         -9.2023       -0.0113129         148.113
0.546                  -0.639987        -144.438         -56.6778        -11.4198         -56.9053        -11.4991        -0.011416         148.044
0.547                  -0.654094        -144.975         -56.5137        -13.7106         -56.7377        -13.7968         -0.01152         147.975
0.548                  -0.668453        -145.516         -56.3506         -16.003         -56.5707        -16.0957        -0.011625         147.905
0.549                  -0.683081        -146.061         -56.1884         -18.297         -56.4045        -18.3959       -0.0117311         147.836
0.55                   -0.697997         -146.61         -56.0272         -20.593         -56.2392        -20.6976       -0.0118382         147.766
0.551                  -0.713222        -147.162         -55.8671        -22.8909         -56.0747         -23.001       -0.0119463         147.696
0.552                  -0.728778        -147.719          -55.708         -25.191         -55.9112        -25.3063       -0.0120556         147.626
0.553                  -0.744688         -148.28         -55.5502        -27.4933         -55.7487        -27.6134       -0.0121659         147.556
0.554                  -0.760979        -148.846         -55.3935        -29.7979         -55.5873        -29.9227       -0.0122773         147.486
0.555                  -0.777677        -149.416         -55.2381        -32.1049         -55.4271        -32.2341         -0.01239         147.416
0.556                  -0.794811         -149.99          -55.084        -34.4143         -55.2681        -34.5478       -0.0125037         147.345
0.557                  -0.812413        -150.569         -54.9312        -36.7263         -55.1103        -36.8639       -0.0126187         147.275
0.558                  -0.830513        -151.153         -54.7798        -39.0409         -54.9538        -39.1823       -0.0127349         147.204
0.559                  -0.849147        -151.741         -54.6298         -41.358         -54.7987        -41.5033       -0.0128523         147.134
0.56                    -0.86835        -152.334         -54.4812        -43.6778         -54.6449        -43.8268        -0.012971         147.063
0.561                   -0.88816        -152.931          -54.334        -46.0002         -54.4926        -46.1528        -0.013091         146.992
0.562                  -0.908616        -153.533         -54.1884        -48.3252         -54.3418        -48.4814       -0.0132123          146.92
0.563                  -0.929757         -154.14         -54.0443        -50.6528         -54.1924        -50.8126       -0.0133349         146.849
0.564                  -0.951626        -154.752         -53.9016         -52.983         -54.0446        -53.1463        -0.013459         146.778
0.565                  -0.974266        -155.368         -53.7606        -55.3157         -53.8984        -55.4826       -0.0135844         146.706
0.566                  -0.997718        -155.988         -53.6211         -57.651         -53.7537        -57.8213       -0.0137112         146.635
0.567                   -1.02203        -156.613         -53.4831        -59.9886         -53.6107        -60.1625       -0.0138395         146.563
0.568                   -1.04724        -157.242         -53.3467        -62.3287         -53.4692        -62.5061       -0.0139693         146.491
0.569                    -1.0734        -157.875          -53.212         -64.671         -53.3294        -64.8521       -0.0141006         146.419
0.57                    -1.10054        -158.512         -53.0788        -67.0156         -53.1913        -67.2002       -0.0142335         146.346
0.571                   -1.12871        -159.153         -52.9472        -69.3623         -53.0548        -69.5506        -0.014368         146.274
0.572                   -1.15796        -159.797         -52.8171         -71.711         -52.9201         -71.903        -0.014504         146.202
0.573                   -1.18831        -160.444         -52.6887        -74.0617         -52.7869        -74.2573       -0.0146417         146.129
0.574                    -1.2198        -161.094         -52.5618        -76.4143         -52.6555        -76.6136       -0.0147812         146.056
0.575                   -1.25246        -161.746         -52.4365        -78.7686         -52.5257        -78.9716       -0.0149223         145.983
0.576                   -1.28633        -162.401         -52.3128        -81.1245         -52.3976        -81.3312       -0.0150652          145.91
0.577                   -1.32142        -163.057         -52.1906         -83.482         -52.2712        -83.6924       -0.0152099         145.837
0.578                   -1.35775        -163.714           -52.07        -85.8409         -52.1465        -86.0549       -0.0153564         145.764
0.579                   -1.39532        -164.372         -51.9508        -88.2012         -52.0233        -88.4187       -0.0155048          145.69
0.58                    -1.43415         -165.03         -51.8332        -90.5626         -51.9018        -90.7837       -0.0156551         145.616
0.581                   -1.47423        -165.689          -51.717        -92.9252          -51.782        -93.1497       -0.0158074         145.543
0.582                   -1.51555        -166.346         -51.6023        -95.2887         -51.6637        -95.5165       -0.0159617         145.469
0.583                   -1.55809        -167.003         -51.4891        -97.6532          -51.547        -97.8842       -0.0161181         145.394
0.584                   -1.60182        -167.658         -51.3772        -100.018         -51.4319        -100.252       -0.0162765          145.32
0.585                    -1.6467        -168.311         -51.2668        -102.384         -51.3183        -102.621       -0.0164372         145.246
0.586                    -1.6927        -168.961         -51.1577        -104.751         -51.2062         -104.99          -0.0166         145.171
0.587                   -1.73975        -169.609         -51.0499        -107.118         -51.0956         -107.36        -0.016765         145.096
0.588                   -1.78781        -170.254         -50.9434        -109.485         -50.9864        -109.729       -0.0169324         145.021
0.589                    -1.8368        -170.894         -50.8382        -111.853         -50.8786        -112.099       -0.0171021         144.946
0.59                    -1.88665        -171.531         -50.7342         -114.22         -50.7723        -114.469       -0.0172742         144.871
0.591                   -1.93729        -172.164         -50.6315        -116.588         -50.6673        -116.838       -0.0174488         144.795
0.592                   -1.98862        -172.793         -50.5299        -118.956         -50.5636        -119.207       -0.0176259          144.72
0.593                   -2.04057        -173.418         -50.4295        -121.324         -50.4612        -121.576       -0.0178056         144.644
0.594                   -2.09304        -174.038         -50.3302        -123.692         -50.3601        -123.945       -0.0179879         144.568
0.595                   -2.14595        -174.654          -50.232         -126.06         -50.2602        -126.312       -0.0181729         144.492
0.596                    -2.1992        -175.265         -50.1349        -128.428         -50.1615         -128.68       -0.0183606         144.415
0.597                   -2.25271        -175.872         -50.0388        -130.795          -50.064        -131.046       -0.0185512         144.339
0.598                    -2.3064        -176.476         -49.9436        -133.162         -49.9675        -133.412       -0.0187446         144.262
0.599                   -2.36017        -177.076         -49.8495        -135.528         -49.8722        -135.777       -0.0189409         144.185
0.6                     -2.41396        -177.673         -49.7562        -137.894         -49.7779        -138.142       -0.0191402         144.108
0.601                   -2.46769        -178.267         -49.6639         -140.26         -49.6846        -140.505       -0.0193424         144.031
0.602                    -2.5213        -178.859         -49.5724        -142.625         -49.5923        -142.867       -0.0195477         143.953
0.603                   -2.57473        -179.449         -49.4818        -144.989         -49.5009        -145.229       -0.0197561         143.876
0.604                   -2.62794         179.962          -49.392        -147.353         -49.4104        -147.589       -0.0199676         143.798
0.605                   -2.68089         179.374          -49.303        -149.717         -49.3209        -149.948       -0.0201823          143.72
0.606                   -2.73354         178.786         -49.2148        -152.079         -49.2321        -152.307       -0.0204001         143.641
0.607                   -2.78587         178.197         -49.1273        -154.442         -49.1442        -154.664        -0.020621         143.563
0.608                   -2.83787         177.607         -49.0405        -156.803         -49.0571         -157.02       -0.0208451         143.484
0.609                   -2.88954         177.016         -48.9544        -159.163         -48.9707        -159.374       -0.0210724         143.405
0.61                    -2.94087         176.421          -48.869        -161.523         -48.8851        -161.728       -0.0213027         143.326
0.611                   -2.99189         175.824         -48.7842        -163.882         -48.8001         -164.08       -0.0215362         143.247
0.612                   -3.04262         175.222         -48.7001        -166.241         -48.7158        -166.431       -0.0217728         143.167
0.613                   -3.09308         174.616         -48.6166        -168.598         -48.6322        -168.781       -0.0220123         143.088
0.614                   -3.14332         174.005         -48.5337        -170.954         -48.5492         -171.13       -0.0222549         143.008
0.615                   -3.19338         173.388         -48.4514         -173.31         -48.4668        -173.477       -0.0225003         142.928
0.616                   -3.24331         172.765         -48.3696        -175.665          -48.385        -175.823       -0.0227486         142.847
0.617                   -3.29318         172.135         -48.2884        -178.018         -48.3038        -178.167       -0.0229997         142.767
0.618                   -3.34304         171.497         -48.2078         179.629         -48.2231          179.49       -0.0232536         142.686
0.619                   -3.39297         170.852         -48.1277         177.278         -48.1429         177.148       -0.0235103         142.605
0.62                    -3.44306         170.198         -48.0482         174.927         -48.0633         174.808       -0.0237696         142.523
0.621                   -3.49337         169.535         -47.9692         172.578         -47.9842         172.469       -0.0240316         142.442
0.622                   -3.54401         168.862         -47.8907         170.231         -47.9055         170.132       -0.0242964          142.36
0.623                   -3.59506          168.18         -47.8127         167.884         -47.8274         167.796       -0.0245638         142.278
0.624                   -3.64662         167.488         -47.7353          165.54         -47.7497         165.463       -0.0248341         142.196
0.625                    -3.6988         166.785         -47.6584         163.196         -47.6725          163.13       -0.0251072         142.113
0.626                    -3.7517         166.071         -47.5821         160.855         -47.5958           160.8       -0.0253832         142.031
0.627                   -3.80544         165.346         -47.5063         158.516         -47.5195         158.472       -0.0256622         141.948
0.628                   -3.86013          164.61         -47.4311         156.179         -47.4436         156.146       -0.0259443         141.864
0.629                   -3.91591         163.862         -47.3564         153.844         -47.3683         153.822       -0.0262298         141.781
0.63                    -3.97288         163.102         -47.2823         151.512         -47.2934           151.5       -0.0265186         141.697
0.631                   -4.03119          162.33         -47.2087         149.183         -47.2189         149.181        -0.026811         141.613
0.632                   -4.09096         161.547         -47.1358         146.858         -47.1449         146.865       -0.0271072         141.528
0.633                   -4.15235         160.751         -47.0634         144.536         -47.0713         144.552       -0.0274072         141.443
0.634                   -4.21548         159.943         -46.9917         142.219         -46.9982         142.242       -0.0277113         141.358
0.635                   -4.28052         159.122         -46.9205         139.906         -46.9256         139.936       -0.0280196         141.273
0.636                    -4.3476          158.29         -46.8498           137.6         -46.8534         137.634       -0.0283324         141.188
0.637                    -4.4169         157.446         -46.7797           135.3         -46.7816         135.337       -0.0286497         141.102
0.638                   -4.48857          156.59           -46.71         133.007         -46.7102         133.045       -0.0289717         141.016
0.639                   -4.56277         155.722         -46.6407         130.723         -46.6392         130.759       -0.0292987         140.929
0.64                    -4.63967         154.844         -46.5715         128.448         -46.5685          128.48       -0.0296307         140.842
0.641                   -4.71944         153.954         -46.5024         126.183         -46.4979         126.207        -0.029968         140.755
0.642                   -4.80226         153.054         -46.4329          123.93         -46.4275         123.943       -0.0303106         140.668
0.643                   -4.88831         152.145         -46.3628         121.688          -46.357         121.688       -0.0306587          140.58
0.644                   -4.97775         151.226         -46.2917         119.457         -46.2862         119.443       -0.0310126         140.492
0.645                   -5.07078         150.299          -46.219         117.236         -46.2148         117.207       -0.0313722         140.403
0.646                   -5.16757         149.364         -46.1445         115.022         -46.1423         114.982       -0.0317378         140.314
0.647                   -5.26829         148.422         -46.0676         112.813         -46.0685         112.765       -0.0321096         140.225
0.648                   -5.37313         147.475         -45.9884         110.603         -45.9928         110.555       -0.0324876         140.136
0.649                   -5.48225         146.522         -45.9069         108.388         -45.9148         108.349        -0.032872         140.046
0.65                    -5.59584         145.567         -45.8235         106.163         -45.8345         106.142       -0.0332629         139.956
0.651                   -5.71405         144.609         -45.7388         103.924         -45.7518         103.928       -0.0336605         139.865
0.652                   -5.83705         143.651         -45.6536         101.671         -45.6671         101.703        -0.034065         139.774
0.653                   -5.96497         142.693         -45.5686         99.4035         -45.5812         99.4621       -0.0344764         139.683
0.654                   -6.09797         141.738         -45.4846         97.1232          -45.495         97.2039       -0.0348949         139.591
0.655                   -6.23617         140.788         -45.4018         94.8332         -45.4094         94.9287       -0.0353207         139.499
0.656                   -6.37968         139.843         -45.3207         92.5366         -45.3252         92.6395       -0.0357539         139.407
0.657                   -6.52861         138.907         -45.2414         90.2366         -45.2429         90.3403       -0.0361947         139.314
0.658                   -6.68302         137.982         -45.1638         87.9361         -45.1628         88.0355       -0.0366432         139.221
0.659                     -6.843         137.069         -45.0878         85.6372         -45.0849         85.7294       -0.0370996         139.127
0.66                    -7.00856         136.172         -45.0133         83.3417         -45.0091         83.4253        -0.037564         139.033
0.661                   -7.17974         135.291         -44.9401          81.051          -44.935         81.1256       -0.0380367         138.938
0.662                   -7.35651         134.431         -44.8681         78.7659         -44.8626          78.832       -0.0385177         138.844
0.663                   -7.53885         133.594          -44.797          76.487         -44.7915         76.5458       -0.0390074         138.748
0.664                   -7.72668         132.782         -44.7268         74.2148         -44.7214         74.2674       -0.0395058         138.652
0.665                    -7.9199         131.998         -44.6574         71.9494         -44.6522         71.9971       -0.0400132         138.556
0.666                   -8.11838         131.244         -44.5886          69.691         -44.5837          69.735       -0.0405298          138.46
0.667                   -8.32196         130.524         -44.5203         67.4397         -44.5158          67.481       -0.0410559         138.362
0.668                   -8.53043         129.841         -44.4524         65.1954         -44.4483          65.235       -0.0415916         138.265
0.669                   -8.74354         129.196         -44.3849         62.9582         -44.3813         62.9969       -0.0421372         138.167
0.67                    -8.96103         128.594         -44.3178          60.728         -44.3144         60.7663       -0.0426931         138.068
0.671                   -9.18256         128.035         -44.2509         58.5047         -44.2479         58.5433       -0.0432595         137.969
0.672                   -9.40779         127.524         -44.1842         56.2882         -44.1815         56.3275        -0.043837          137.87
0.673                    -9.6363         127.061         -44.1177         54.0786         -44.1152         54.1188        -0.044426          137.77
0.674                   -9.86767          126.65         -44.0513         51.8758          -44.049         51.9172        -0.045027         137.669
0.675                   -10.1014         126.293          -43.985         49.6796         -43.9828         49.7224       -0.0456407         137.568
0.676                    -10.337         125.991         -43.9188         47.4901         -43.9167         47.5344        -0.046268         137.466
0.677                   -10.5739         125.746         -43.8526         45.3073         -43.8506         45.3531       -0.0469098         137.364
0.678                   -10.8115         125.559         -43.7864         43.1309         -43.7845         43.1784       -0.0475669         137.262
0.679                   -11.0492         125.432         -43.7202         40.9611         -43.7183         41.0102       -0.0482403         137.158
0.68                    -11.2863         125.364          -43.654         38.7977          -43.652         38.8485       -0.0489302         137.055
0.681                   -11.5222         125.357         -43.5876         36.6408         -43.5856         36.6931        -0.049636          136.95
0.682                   -11.7562          125.41         -43.5212         34.4902         -43.5191          34.544        -0.050356         136.845
0.683                   -11.9876         125.523         -43.4546         32.3459         -43.4525         32.4013       -0.0510877          136.74
0.684                   -12.2157         125.694         -43.3878         30.2078         -43.3856         30.2647       -0.0518287         136.634
0.685                   -12.4397         125.922         -43.3209          28.076         -43.3186         28.1343       -0.0525774         136.528
0.686                   -12.6591         126.206         -43.2538         25.9503         -43.2514         26.0101       -0.0533341         136.421
0.687                   -12.8731         126.542         -43.1864         23.8307          -43.184         23.8918       -0.0540998         136.313
0.688                   -13.0811         126.927         -43.1187         21.7172         -43.1163         21.7796       -0.0548765         136.204
0.689                   -13.2826         127.359         -43.0508         19.6096         -43.0483         19.6733       -0.0556659         136.095
0.69                    -13.4769         127.834         -42.9826         17.5079           -42.98         17.5729       -0.0564696         135.986
0.691                   -13.6637         128.347          -42.914         15.4121         -42.9113         15.4784       -0.0572886         135.875
0.692                   -13.8426         128.893         -42.8451         13.3221         -42.8423         13.3895       -0.0581241         135.764
0.693                   -14.0131         129.469         -42.7757         11.2377          -42.773         11.3064       -0.0589766         135.652
0.694                   -14.1752         130.069          -42.706         9.15897         -42.7032         9.22886       -0.0598468          135.54
0.695                   -14.3286         130.688         -42.6358         7.08576          -42.633         7.15685       -0.0607351         135.426
0.696                   -14.4732          131.32         -42.5652         5.01799         -42.5624         5.09029       -0.0616422         135.312
0.697                   -14.6092         131.961          -42.494         2.95557         -42.4912         3.02909       -0.0625683         135.197