! TOUCHSTONE file generated by CST MICROWAVE STUDIO
! Date and time: Sat Oct 24 11:48:38 2020
! Project name: Scenario_1_Circular_Tissue_out_of_Line.cst
! Parameters = {dy1=191.571; L_HA=400; MT=2.54; Rad_Dielectric=30; Rad_Lower=7.3; Rad_Upper=30; a_HA=580; a_WG=246; b_HA=500; b_WG=121; c_HA=0; c_WG=187; d_feed=85; dx1=1039; h_feed=15; h_lower=18; h_upper=40}
! Header version: 2018
! Port assignment regex: !\s*Touchstone port\s*([0-9]+)\s*=\s*(CST MWS port|CST DS port)\s*([0-9]+|Zmin|Zmax)\s*\(\"(.*)\"\)(\s*mode\s*([0-9]+))?.*
! Touchstone port assignment:
! Touchstone port 1 = CST MWS port 1 ("")
! Touchstone port 2 = CST MWS port 2 ("")
# GHz S DB R 50
0.5                    -0.145335        -122.109         -64.2293        -6.31026         -64.2293        -6.31026      -0.00755206          151.14
0.501                  -0.141221        -122.543         -64.7821        -11.7373         -64.7876        -11.7237      -0.00762583         151.075
0.502                  -0.137388        -122.979         -65.3005        -17.7087         -65.3123         -17.687      -0.00769968          151.01
0.503                  -0.133843        -123.419         -65.7651         -24.231         -65.7838         -24.209      -0.00777362         150.945
0.504                  -0.130591        -123.862          -66.154        -31.2702         -66.1799         -31.258      -0.00784766          150.88
0.505                   -0.12764        -124.308          -66.445        -38.7396          -66.478        -38.7485      -0.00792181         150.814
0.506                  -0.124996        -124.756         -66.6201        -46.4966         -66.6592        -46.5378      -0.00799609         150.749
0.507                  -0.122665        -125.208         -66.6688        -54.3552         -66.7125        -54.4374      -0.00807052         150.684
0.508                  -0.120654        -125.663         -66.5913         -62.113         -66.6379        -62.2411      -0.00814511         150.618
0.509                  -0.118969         -126.12         -66.3984        -69.5853         -66.4459        -69.7596      -0.00821987         150.552
0.51                   -0.117618        -126.581         -66.1085        -76.6318         -66.1553        -76.8487      -0.00829482         150.487
0.511                  -0.116607        -127.044         -65.7437        -83.1677         -65.7886        -83.4212      -0.00836997         150.421
0.512                  -0.115942         -127.51          -65.326         -89.161         -65.3681         -89.444      -0.00844535         150.355
0.513                   -0.11563         -127.98         -64.8746        -94.6196         -64.9136         -94.925      -0.00852097         150.289
0.514                  -0.115679        -128.452         -64.4052        -99.5768         -64.4408        -99.8984      -0.00859685         150.223
0.515                  -0.116095        -128.927         -63.9294        -104.079         -63.9618        -104.412      -0.00867299         150.157
0.516                  -0.116885        -129.406         -63.4559        -108.178         -63.4852        -108.517      -0.00874943         150.091
0.517                  -0.118056        -129.887         -62.9904        -111.923         -63.0169        -112.266      -0.00882618         150.024
0.518                  -0.119616        -130.371         -62.5368        -115.361         -62.5607        -115.704      -0.00890326         149.958
0.519                   -0.12157        -130.858         -62.0974        -118.534         -62.1189        -118.876      -0.00898068         149.892
0.52                   -0.123925        -131.347         -61.6736        -121.477          -61.693        -121.817      -0.00905847         149.825
0.521                   -0.12669         -131.84         -61.2658        -124.223         -61.2834        -124.559      -0.00913664         149.758
0.522                  -0.129871        -132.336         -60.8743        -126.798         -60.8902         -127.13      -0.00921522         149.692
0.523                  -0.133475        -132.834         -60.4988        -129.226         -60.5131        -129.552      -0.00929423         149.625
0.524                  -0.137509        -133.336         -60.1388        -131.525         -60.1518        -131.846      -0.00937368         149.558
0.525                   -0.14198         -133.84         -59.7937        -133.712         -59.8056        -134.028       -0.0094536         149.491
0.526                  -0.146895        -134.347         -59.4631        -135.803         -59.4738        -136.113      -0.00953401         149.424
0.527                  -0.152261        -134.857         -59.1461        -137.809         -59.1559        -138.112      -0.00961494         149.357
0.528                  -0.158085         -135.37         -58.8422         -139.74         -58.8511        -140.038       -0.0096964         149.289
0.529                  -0.164374        -135.885         -58.5506        -141.606         -58.5587        -141.898      -0.00977842         149.222
0.53                   -0.171135        -136.404         -58.2708        -143.416         -58.2781        -143.701      -0.00986102         149.155
0.531                  -0.178375        -136.925          -58.002        -145.174         -58.0087        -145.454      -0.00994423         149.087
0.532                  -0.186101        -137.448         -57.7437        -146.889         -57.7499        -147.162       -0.0100281         149.019
0.533                   -0.19432        -137.975         -57.4955        -148.565         -57.5011        -148.832       -0.0101126         148.952
0.534                  -0.203038        -138.504         -57.2566        -150.206         -57.2617        -150.468       -0.0101977         148.884
0.535                  -0.212263        -139.036         -57.0267        -151.817         -57.0314        -152.073       -0.0102836         148.816
0.536                     -0.222        -139.571         -56.8053        -153.402         -56.8096        -153.652       -0.0103702         148.748
0.537                  -0.232257        -140.108         -56.5919        -154.963         -56.5959        -155.207       -0.0104576          148.68
0.538                   -0.24304        -140.648         -56.3862        -156.504         -56.3898        -156.742       -0.0105458         148.611
0.539                  -0.254356         -141.19         -56.1878        -158.027         -56.1911         -158.26       -0.0106348         148.543
0.54                   -0.266212        -141.735         -55.9963        -159.534         -55.9993        -159.762       -0.0107246         148.475
0.541                  -0.278612        -142.282         -55.8114        -161.029         -55.8141        -161.251       -0.0108153         148.406
0.542                  -0.291565        -142.832         -55.6328        -162.511         -55.6352        -162.728       -0.0109069         148.337
0.543                  -0.305076        -143.385         -55.4601        -163.985         -55.4623        -164.196       -0.0109994         148.269
0.544                  -0.319151        -143.939         -55.2932         -165.45         -55.2952        -165.656       -0.0110929           148.2
0.545                  -0.333797        -144.497         -55.1317        -166.909         -55.1335         -167.11       -0.0111874         148.131
0.546                  -0.349018        -145.056         -54.9755        -168.362         -54.9771        -168.558       -0.0112829         148.062
0.547                  -0.364822        -145.618         -54.8242        -169.812         -54.8256        -170.003       -0.0113794         147.993
0.548                  -0.381213        -146.183         -54.6777        -171.259          -54.679        -171.445       -0.0114771         147.923
0.549                  -0.398197        -146.749         -54.5358        -172.704         -54.5369        -172.885       -0.0115758         147.854
0.55                   -0.415781        -147.318         -54.3982        -174.149         -54.3992        -174.325       -0.0116757         147.784
0.551                  -0.433968        -147.889         -54.2649        -175.594         -54.2658        -175.766       -0.0117768         147.715
0.552                  -0.452765        -148.462         -54.1356         -177.04         -54.1363        -177.207       -0.0118791         147.645
0.553                  -0.472176        -149.038         -54.0102        -178.488         -54.0108        -178.651       -0.0119826         147.575
0.554                  -0.492207        -149.615         -53.8884         -179.94         -53.8889         179.903       -0.0120874         147.505
0.555                  -0.512862        -150.195         -53.7703         178.606         -53.7707         178.453       -0.0121936         147.435
0.556                  -0.534146        -150.776         -53.6555         177.147         -53.6558         176.998       -0.0123011         147.365
0.557                  -0.556064         -151.36         -53.5441         175.682         -53.5443         175.538       -0.0124099         147.294
0.558                  -0.578619        -151.945         -53.4358         174.213          -53.436         174.073       -0.0125202         147.224
0.559                  -0.601817        -152.533         -53.3306         172.737         -53.3307         172.601       -0.0126319         147.153
0.56                   -0.625661        -153.122         -53.2283         171.253         -53.2283         171.122       -0.0127452         147.082
0.561                  -0.650155        -153.713         -53.1289         169.763         -53.1288         169.636       -0.0128599         147.012
0.562                  -0.675304        -154.306         -53.0321         168.264          -53.032         168.141       -0.0129762         146.941
0.563                   -0.70111        -154.901          -52.938         166.757         -52.9377         166.638       -0.0130941         146.869
0.564                  -0.727578        -155.498         -52.8463         165.241          -52.846         165.126       -0.0132136         146.798
0.565                   -0.75471        -156.096         -52.7571         163.715         -52.7568         163.604       -0.0133348         146.727
0.566                   -0.78251        -156.696         -52.6702         162.178         -52.6698         162.071       -0.0134576         146.655
0.567                  -0.810981        -157.297         -52.5855         160.631         -52.5851         160.528       -0.0135823         146.584
0.568                  -0.840126          -157.9          -52.503         159.073         -52.5025         158.974       -0.0137086         146.512
0.569                  -0.869947        -158.505         -52.4225         157.504          -52.422         157.408       -0.0138368          146.44
0.57                   -0.900448        -159.111          -52.344         155.922         -52.3434          155.83       -0.0139668         146.368
0.571                   -0.93163        -159.719         -52.2674         154.328         -52.2668          154.24       -0.0140987         146.296
0.572                  -0.963495        -160.328         -52.1926          152.72         -52.1919         152.636       -0.0142325         146.224
0.573                  -0.996047        -160.938         -52.1195           151.1         -52.1188         151.019       -0.0143682         146.151
0.574                   -1.02929         -161.55         -52.0481         149.465         -52.0474         149.388       -0.0145059         146.078
0.575                   -1.06321        -162.163         -51.9782         147.817         -51.9775         147.743       -0.0146455         146.006
0.576                   -1.09784        -162.777         -51.9099         146.153         -51.9092         146.083       -0.0147873         145.933
0.577                   -1.13315        -163.393          -51.843         144.475         -51.8422         144.408       -0.0149311          145.86
0.578                   -1.16916         -164.01         -51.7774         142.781         -51.7767         142.718        -0.015077         145.787
0.579                   -1.20586        -164.628         -51.7131         141.071         -51.7124         141.011        -0.015225         145.713
0.58                    -1.24326        -165.247         -51.6501         139.345         -51.6493         139.289       -0.0153752          145.64
0.581                   -1.28136        -165.868         -51.5882         137.603         -51.5874         137.549       -0.0155275         145.566
0.582                   -1.32015        -166.489         -51.5273         135.844         -51.5266         135.793       -0.0156821         145.493
0.583                   -1.35965        -167.112         -51.4675         134.067         -51.4667          134.02       -0.0158389         145.419
0.584                   -1.39985        -167.735         -51.4086         132.273         -51.4078         132.229       -0.0159981         145.345
0.585                   -1.44075         -168.36         -51.3505         130.461         -51.3498         130.419       -0.0161595          145.27
0.586                   -1.48235        -168.985         -51.2933          128.63         -51.2925         128.592       -0.0163232         145.196
0.587                   -1.52465        -169.612         -51.2367         126.781          -51.236         126.746       -0.0164893         145.121
0.588                   -1.56765         -170.24         -51.1808         124.913         -51.1801         124.881       -0.0166578         145.047
0.589                   -1.61136        -170.868         -51.1255         123.027         -51.1248         122.997       -0.0168286         144.972
0.59                    -1.65577        -171.497         -51.0706          121.12           -51.07         121.093       -0.0170019         144.897
0.591                   -1.70088        -172.128         -51.0162         119.194         -51.0156          119.17       -0.0171777         144.822
0.592                    -1.7467        -172.759         -50.9622         117.249         -50.9616         117.227       -0.0173559         144.746
0.593                   -1.79322        -173.391         -50.9084         115.283         -50.9078         115.263       -0.0175366         144.671
0.594                   -1.84045        -174.024         -50.8549         113.297         -50.8543          113.28       -0.0177198         144.595
0.595                   -1.88838        -174.657         -50.8015          111.29          -50.801         111.276       -0.0179055         144.519
0.596                   -1.93701        -175.292         -50.7482         109.263         -50.7477         109.251       -0.0180938         144.443
0.597                   -1.98635        -175.927         -50.6949         107.215         -50.6944         107.205       -0.0182847         144.367
0.598                    -2.0364        -176.563         -50.6415         105.147         -50.6411         105.139       -0.0184781         144.291
0.599                   -2.08715          -177.2          -50.588         103.057         -50.5876         103.052       -0.0186742         144.214
0.6                     -2.13861        -177.838         -50.5343         100.947         -50.5339         100.943       -0.0188729         144.137
0.601                   -2.19078        -178.476         -50.4802         98.8156           -50.48         98.8138       -0.0190742          144.06
0.602                   -2.24365        -179.116         -50.4259         96.6632         -50.4256         96.6633       -0.0192782         143.983
0.603                   -2.29723        -179.756         -50.3711         94.4899         -50.3709         94.4917       -0.0194848         143.906
0.604                   -2.35152         179.603         -50.3159         92.2957         -50.3157         92.2992       -0.0196942         143.828
0.605                   -2.40652         178.961         -50.2601         90.0806           -50.26         90.0858       -0.0199062         143.751
0.606                   -2.46224         178.318         -50.2036         87.8449         -50.2036         87.8517        -0.020121         143.673
0.607                   -2.51866         177.675         -50.1466         85.5887         -50.1466         85.5969       -0.0203385         143.595
0.608                   -2.57581          177.03         -50.0887         83.3121         -50.0888         83.3217       -0.0205588         143.516
0.609                   -2.63367         176.385         -50.0301         81.0154         -50.0303         81.0263       -0.0207818         143.438
0.61                    -2.69225         175.739         -49.9707         78.6988         -49.9709          78.711       -0.0210077         143.359
0.611                   -2.75155         175.091         -49.9104         76.3626         -49.9106         76.3759       -0.0212364          143.28
0.612                   -2.81158         174.443         -49.8491         74.0071         -49.8494         74.0215       -0.0214679         143.201
0.613                   -2.87233         173.794         -49.7868         71.6328         -49.7872         71.6481       -0.0217023         143.122
0.614                   -2.93382         173.143         -49.7235         69.2398         -49.7239         69.2561       -0.0219396         143.042
0.615                   -2.99605         172.492         -49.6592         66.8288         -49.6596         66.8459       -0.0221798         142.963
0.616                   -3.05901          171.84         -49.5937         64.4001         -49.5942         64.4179       -0.0224229         142.883
0.617                   -3.12273         171.186         -49.5271         61.9541         -49.5277         61.9726        -0.022669         142.803
0.618                   -3.18719         170.531         -49.4594         59.4915           -49.46         59.5106       -0.0229181         142.722
0.619                   -3.25242         169.875         -49.3904         57.0128         -49.3911         57.0323       -0.0231702         142.642
0.62                     -3.3184         169.218         -49.3203         54.5185          -49.321         54.5384       -0.0234254         142.561
0.621                   -3.38517         168.559         -49.2491         52.0091         -49.2498         52.0294       -0.0236837          142.48
0.622                   -3.45271         167.899         -49.1766         49.4854         -49.1773          49.506       -0.0239451         142.398
0.623                   -3.52104         167.237         -49.1029          46.948         -49.1037         46.9688       -0.0242098         142.317
0.624                   -3.59017         166.574          -49.028         44.3975         -49.0288         44.4184       -0.0244776         142.235
0.625                   -3.66011         165.909         -48.9519         41.8345         -48.9528         41.8555       -0.0247487         142.153
0.626                   -3.73087         165.242         -48.8747         39.2599         -48.8756         39.2808       -0.0250232         142.071
0.627                   -3.80247         164.574         -48.7964         36.6742         -48.7973         36.6951        -0.025301         141.988
0.628                   -3.87491         163.904         -48.7169         34.0782         -48.7178          34.099       -0.0255822         141.905
0.629                   -3.94822         163.232         -48.6363         31.4726         -48.6373         31.4932       -0.0258669         141.822
0.63                     -4.0224         162.558         -48.5547         28.8582         -48.5557         28.8785       -0.0261552         141.739
0.631                   -4.09748         161.882         -48.4722         26.2356         -48.4732         26.2556       -0.0264471         141.655
0.632                   -4.17347         161.204         -48.3886         23.6057         -48.3896         23.6253       -0.0267427         141.571
0.633                   -4.25039         160.523         -48.3042          20.969         -48.3052         20.9883        -0.027042         141.487
0.634                   -4.32827          159.84         -48.2189         18.3264         -48.2199         18.3453       -0.0273452         141.403
0.635                   -4.40713         159.155         -48.1329         15.6786         -48.1339          15.697       -0.0276522         141.318
0.636                   -4.48699         158.467         -48.0461         13.0263         -48.0471         13.0442       -0.0279633         141.233
0.637                   -4.56788         157.776         -47.9586         10.3703         -47.9596         10.3876       -0.0282784         141.148
0.638                   -4.64983         157.083         -47.8706         7.71107         -47.8716         7.72785       -0.0285977         141.062
0.639                   -4.73286         156.387          -47.782         5.04947          -47.783         5.06566       -0.0289213         140.977
0.64                    -4.81702         155.687          -47.693         2.38612          -47.694         2.40171       -0.0292492          140.89
0.641                   -4.90234         154.985         -47.6036       -0.278307         -47.6045       -0.263344       -0.0295816         140.804
0.642                   -4.98886         154.279         -47.5139        -2.94319         -47.5148        -2.92887       -0.0299186         140.717
0.643                   -5.07661          153.57          -47.424         -5.6079         -47.4249        -5.59423       -0.0302602          140.63
0.644                   -5.16564         152.858         -47.3339        -8.27183         -47.3347        -8.25883       -0.0306067         140.543
0.645                   -5.25601         152.142         -47.2437        -10.9344         -47.2445        -10.9221        -0.030958         140.455
0.646                   -5.34775         151.422         -47.1535        -13.5951         -47.1543        -13.5834       -0.0313143         140.367
0.647                   -5.44093         150.699         -47.0634        -16.2533         -47.0641        -16.2423       -0.0316759         140.279
0.648                   -5.53561         149.972         -46.9733        -18.9085         -46.9741        -18.8982       -0.0320426          140.19
0.649                   -5.63184          149.24         -46.8835        -21.5602         -46.8842        -21.5506       -0.0324149         140.101
0.65                    -5.72969         148.505         -46.7939         -24.208         -46.7946         -24.199       -0.0327926         140.012
0.651                   -5.82924         147.765         -46.7047        -26.8514         -46.7053         -26.843       -0.0331761         139.922
0.652                   -5.93057         147.021         -46.6158        -29.4899         -46.6164        -29.4822       -0.0335654         139.832
0.653                   -6.03375         146.272         -46.5273        -32.1231         -46.5279        -32.1161       -0.0339607         139.741
0.654                   -6.13888         145.519         -46.4394        -34.7507         -46.4399        -34.7443       -0.0343621         139.651
0.655                   -6.24605         144.761          -46.352        -37.3723         -46.3525        -37.3665       -0.0347698         139.559
0.656                   -6.35537         143.999         -46.2652        -39.9876         -46.2656        -39.9823        -0.035184         139.468
0.657                   -6.46694         143.233          -46.179        -42.5961         -46.1794        -42.5914       -0.0356049         139.376
0.658                   -6.58088         142.461         -46.0934        -45.1977         -46.0938        -45.1936       -0.0360325         139.284
0.659                   -6.69731         141.685         -46.0086        -47.7921          -46.009        -47.7884       -0.0364671         139.191
0.66                    -6.81638         140.905         -45.9246        -50.3789         -45.9249        -50.3757       -0.0369089         139.098
0.661                   -6.93822          140.12         -45.8413        -52.9579         -45.8416        -52.9553       -0.0373581         139.004
0.662                   -7.06299         139.331         -45.7587         -55.529          -45.759        -55.5268       -0.0378147          138.91
0.663                   -7.19085         138.538         -45.6771         -58.092         -45.6773        -58.0902       -0.0382791         138.816
0.664                   -7.32197         137.741         -45.5962        -60.6466         -45.5964        -60.6452       -0.0387514         138.721
0.665                   -7.45655          136.94         -45.5162        -63.1926         -45.5164        -63.1917       -0.0392319         138.626
0.666                   -7.59478         136.137          -45.437        -65.7301         -45.4372        -65.7295       -0.0397206          138.53
0.667                   -7.73687          135.33         -45.3587        -68.2588         -45.3589        -68.2585        -0.040218         138.434
0.668                   -7.88305         134.522         -45.2812        -70.7786         -45.2814        -70.7787       -0.0407241         138.338
0.669                   -8.03355         133.712         -45.2046        -73.2895         -45.2048        -73.2899       -0.0412392         138.241
0.67                    -8.18862         132.902         -45.1289        -75.7914          -45.129         -75.792       -0.0417635         138.143
0.671                   -8.34853         132.093          -45.054        -78.2842         -45.0541        -78.2851       -0.0422973         138.046
0.672                   -8.51356         131.285         -44.9799        -80.7679           -44.98         -80.769       -0.0428408         137.947
0.673                     -8.684          130.48         -44.9067        -83.2425         -44.9068        -83.2438       -0.0433942         137.848
0.674                   -8.86016         129.679         -44.8342         -85.708         -44.8343        -85.7095       -0.0439578         137.749
0.675                   -9.04234         128.885         -44.7625        -88.1644         -44.7626         -88.166       -0.0445319         137.649
0.676                   -9.23087           128.1         -44.6916        -90.6116         -44.6917        -90.6133       -0.0451167         137.549
0.677                    -9.4261         127.326         -44.6214        -93.0498         -44.6215        -93.0516       -0.0457124         137.448
0.678                   -9.62835         126.565          -44.552         -95.479          -44.552        -95.4809       -0.0463194         137.347
0.679                   -9.83796         125.822         -44.4832        -97.8992         -44.4832        -97.9012        -0.046938         137.245
0.68                    -10.0553         125.099          -44.415        -100.311          -44.415        -100.313       -0.0475684         137.142
0.681                   -10.2806         124.401         -44.3474        -102.713         -44.3475        -102.715       -0.0482109         137.039
0.682                   -10.5142         123.733         -44.2805        -105.107         -44.2805        -105.109       -0.0488659         136.936
0.683                   -10.7565         123.099          -44.214        -107.492         -44.2141        -107.494       -0.0495336         136.832
0.684                   -11.0075         122.507         -44.1481        -109.869         -44.1481        -109.871       -0.0502144         136.727
0.685                   -11.2675         121.962         -44.0826        -112.237         -44.0826        -112.239       -0.0509086         136.622
0.686                   -11.5366         121.472         -44.0175        -114.597         -44.0176        -114.599       -0.0516165         136.516
0.687                   -11.8147         121.045         -43.9528        -116.948         -43.9529         -116.95       -0.0523384         136.409
0.688                   -12.1018          120.69         -43.8885        -119.292         -43.8885        -119.294       -0.0530748         136.302
0.689                   -12.3974         120.417         -43.8244        -121.628         -43.8245         -121.63        -0.053826         136.195
0.69                    -12.7011         120.236         -43.7606        -123.956         -43.7606        -123.958       -0.0545924         136.086
0.691                   -13.0121         120.159          -43.697        -126.276          -43.697        -126.278       -0.0553742         135.977
0.692                   -13.3293         120.196         -43.6335        -128.589         -43.6335        -128.591       -0.0561721         135.868
0.693                   -13.6515          120.36         -43.5701        -130.895         -43.5702        -130.896       -0.0569862         135.757
0.694                   -13.9768         120.661         -43.5068        -133.193         -43.5069        -133.195       -0.0578171         135.646
0.695                    -14.303         121.111         -43.4435        -135.485         -43.4436        -135.486       -0.0586652         135.535
0.696                   -14.6275         121.718         -43.3802        -137.769         -43.3802        -137.771       -0.0595309         135.422
0.697                   -14.9473         122.491         -43.3168        -140.047         -43.3168        -140.048       -0.0604146         135.309