! TOUCHSTONE file generated by CST MICROWAVE STUDIO
! Date and time: Wed Oct 28 19:39:56 2020
! Project name: Scenario_1_Circular_Tissue_out_of_Line_v2.cst
! Parameters = {dy1=224.9; L_HA=400; MT=2.54; Rad_Dielectric=30; Rad_Lower=7.3; Rad_Upper=30; a_HA=580; a_WG=246; b_HA=500; b_WG=121; c_HA=0; c_WG=187; d_feed=85; dx1=346; h_feed=15; h_lower=18; h_upper=40}
! Header version: 2018
! Port assignment regex: !\s*Touchstone port\s*([0-9]+)\s*=\s*(CST MWS port|CST DS port)\s*([0-9]+|Zmin|Zmax)\s*\(\"(.*)\"\)(\s*mode\s*([0-9]+))?.*
! Touchstone port assignment:
! Touchstone port 1 = CST MWS port 1 ("")
! Touchstone port 2 = CST MWS port 2 ("")
# GHz S DB R 50
0.5                    -0.154181        -122.213         -60.5546         6.29195         -60.5546         6.29195      -0.00803207         151.144
0.501                  -0.158358        -122.644         -60.4413         4.75998         -60.4413         4.76035      -0.00809489         151.079
0.502                  -0.162661        -123.079         -60.3267         3.23162         -60.3267         3.23234        -0.008158         151.014
0.503                  -0.167096        -123.515         -60.2109         1.70679         -60.2109         1.70785       -0.0082214         150.949
0.504                  -0.171667        -123.954         -60.0938        0.185425         -60.0939        0.186794       -0.0082851         150.884
0.505                  -0.176379        -124.396         -59.9757        -1.33259         -59.9757        -1.33093      -0.00834911         150.818
0.506                  -0.181237         -124.84         -59.8564        -2.84737         -59.8565        -2.84544      -0.00841345         150.753
0.507                  -0.186246        -125.287         -59.7361        -4.35902         -59.7362        -4.35684      -0.00847812         150.687
0.508                  -0.191411        -125.737         -59.6148         -5.8677         -59.6149        -5.86528      -0.00854314         150.622
0.509                  -0.196739        -126.189         -59.4926        -7.37352         -59.4927        -7.37089      -0.00860851         150.556
0.51                   -0.202234        -126.644         -59.3694        -8.87666         -59.3695        -8.87383      -0.00867424          150.49
0.511                  -0.207903        -127.101         -59.2454        -10.3773         -59.2455        -10.3742      -0.00874036         150.424
0.512                  -0.213751        -127.561         -59.1205        -11.8755         -59.1206        -11.8723      -0.00880686         150.358
0.513                  -0.219786        -128.024         -58.9948        -13.3715          -58.995        -13.3682      -0.00887376         150.292
0.514                  -0.226013         -128.49         -58.8684        -14.8655         -58.8686        -14.8621      -0.00894108         150.226
0.515                   -0.23244        -128.959         -58.7413        -16.3577         -58.7415        -16.3542      -0.00900882          150.16
0.516                  -0.239073         -129.43         -58.6135        -17.8483         -58.6137        -17.8447        -0.009077         150.094
0.517                  -0.245921        -129.905         -58.4851        -19.3374         -58.4853        -19.3337      -0.00914564         150.027
0.518                   -0.25299        -130.382          -58.356        -20.8253         -58.3562        -20.8215      -0.00921474         149.961
0.519                  -0.260289        -130.862         -58.2264        -22.3121         -58.2266        -22.3082      -0.00928433         149.894
0.52                   -0.267825        -131.345         -58.0962        -23.7981         -58.0964        -23.7942      -0.00935441         149.828
0.521                  -0.275607        -131.831         -57.9656        -25.2834         -57.9658        -25.2795        -0.009425         149.761
0.522                  -0.283644         -132.32         -57.8344        -26.7684         -57.8346        -26.7644      -0.00949613         149.694
0.523                  -0.291944        -132.813         -57.7028        -28.2531          -57.703        -28.2491      -0.00956779         149.627
0.524                  -0.300518        -133.308         -57.5707        -29.7378         -57.5709        -29.7339      -0.00964002          149.56
0.525                  -0.309374        -133.806         -57.4383        -31.2227         -57.4385        -31.2188      -0.00971283         149.493
0.526                  -0.318522        -134.307         -57.3055        -32.7081         -57.3057        -32.7042      -0.00978623         149.426
0.527                  -0.327974        -134.812         -57.1723        -34.1941         -57.1725        -34.1902      -0.00986025         149.359
0.528                  -0.337739        -135.319         -57.0388        -35.6809          -57.039        -35.6771       -0.0099349         149.292
0.529                  -0.347828         -135.83          -56.905        -37.1688         -56.9052        -37.1651       -0.0100102         149.224
0.53                   -0.358252        -136.344          -56.771         -38.658         -56.7712        -38.6544       -0.0100862         149.157
0.531                  -0.369024        -136.861         -56.6366        -40.1487         -56.6368        -40.1451       -0.0101628         149.089
0.532                  -0.380155        -137.381         -56.5021         -41.641         -56.5023        -41.6375       -0.0102402         149.021
0.533                  -0.391656        -137.904         -56.3674        -43.1353         -56.3676        -43.1319       -0.0103184         148.953
0.534                  -0.403542        -138.431         -56.2324        -44.6316         -56.2326        -44.6283       -0.0103972         148.885
0.535                  -0.415824        -138.961         -56.0973        -46.1303         -56.0975        -46.1271       -0.0104769         148.817
0.536                  -0.428517        -139.494         -55.9621        -47.6314         -55.9623        -47.6284       -0.0105574         148.749
0.537                  -0.441632         -140.03         -55.8267        -49.1353         -55.8269        -49.1323       -0.0106387         148.681
0.538                  -0.455185        -140.569         -55.6913         -50.642         -55.6915        -50.6392       -0.0107208         148.613
0.539                   -0.46919        -141.112         -55.5558        -52.1518         -55.5559        -52.1491       -0.0108038         148.544
0.54                    -0.48366        -141.657         -55.4202        -53.6649         -55.4203        -53.6624       -0.0108878         148.476
0.541                  -0.498611        -142.206         -55.2845        -55.1814         -55.2847         -55.179       -0.0109727         148.407
0.542                  -0.514058        -142.758         -55.1489        -56.7016          -55.149        -56.6993       -0.0110585         148.338
0.543                  -0.530015        -143.313         -55.0132        -58.2255         -55.0134        -58.2234       -0.0111453         148.269
0.544                  -0.546499        -143.871         -54.8776        -59.7534         -54.8777        -59.7515       -0.0112332           148.2
0.545                  -0.563524        -144.432          -54.742        -61.2855         -54.7422        -61.2837       -0.0113221         148.131
0.546                  -0.581106        -144.996         -54.6065        -62.8218         -54.6066        -62.8202       -0.0114121         148.062
0.547                  -0.599262        -145.564         -54.4711        -64.3626         -54.4712        -64.3611       -0.0115032         147.993
0.548                  -0.618006        -146.134         -54.3358        -65.9079         -54.3358        -65.9067       -0.0115955         147.923
0.549                  -0.637356        -146.706         -54.2005         -67.458         -54.2006        -67.4569        -0.011689         147.854
0.55                   -0.657325        -147.282         -54.0655         -69.013         -54.0655        -69.0121       -0.0117836         147.784
0.551                  -0.677931         -147.86         -53.9306         -70.573         -53.9306        -70.5722       -0.0118796         147.714
0.552                  -0.699187        -148.441         -53.7959         -72.138         -53.7959        -72.1375       -0.0119768         147.645
0.553                   -0.72111        -149.025         -53.6613        -73.7083         -53.6614         -73.708       -0.0120754         147.575
0.554                  -0.743715        -149.611         -53.5271         -75.284         -53.5271        -75.2838       -0.0121753         147.504
0.555                  -0.767015        -150.199          -53.393        -76.8651          -53.393        -76.8651       -0.0122766         147.434
0.556                  -0.791024         -150.79         -53.2592        -78.4518         -53.2592         -78.452       -0.0123794         147.364
0.557                  -0.815756        -151.383         -53.1258        -80.0441         -53.1257        -80.0445       -0.0124837         147.293
0.558                  -0.841222        -151.977         -52.9926        -81.6421         -52.9926        -81.6426       -0.0125895         147.223
0.559                  -0.867436        -152.574         -52.8598        -83.2459         -52.8597        -83.2466       -0.0126968         147.152
0.56                   -0.894406        -153.172         -52.7273        -84.8555         -52.7273        -84.8564       -0.0128058         147.081
0.561                  -0.922143        -153.772         -52.5952        -86.4711         -52.5952        -86.4722       -0.0129164          147.01
0.562                  -0.950655        -154.374         -52.4635        -88.0926         -52.4635        -88.0938       -0.0130288         146.939
0.563                  -0.979949        -154.977         -52.3323          -89.72         -52.3322        -89.7215       -0.0131428         146.868
0.564                   -1.01003        -155.581         -52.2014        -91.3535         -52.2014        -91.3551       -0.0132586         146.796
0.565                    -1.0409        -156.186         -52.0711         -92.993          -52.071        -92.9948       -0.0133763         146.725
0.566                   -1.07257        -156.792         -51.9413        -94.6386         -51.9412        -94.6406       -0.0134957         146.653
0.567                   -1.10503        -157.398         -51.8119        -96.2901         -51.8118        -96.2923       -0.0136171         146.581
0.568                   -1.13829        -158.005         -51.6831        -97.9478          -51.683        -97.9501       -0.0137405         146.509
0.569                   -1.17233        -158.612         -51.5549        -99.6114         -51.5548        -99.6138       -0.0138658         146.437
0.57                    -1.20716         -159.22         -51.4273        -101.281         -51.4272        -101.284       -0.0139931         146.365
0.571                   -1.24276        -159.827         -51.3002        -102.956         -51.3001        -102.959       -0.0141225         146.293
0.572                   -1.27913        -160.434         -51.1738        -104.638         -51.1737        -104.641       -0.0142539          146.22
0.573                   -1.31625        -161.041         -51.0481        -106.325          -51.048        -106.328       -0.0143875         146.148
0.574                    -1.3541        -161.647          -50.923        -108.018         -50.9229        -108.021       -0.0145232         146.075
0.575                   -1.39268        -162.252         -50.7986        -109.717         -50.7985         -109.72       -0.0146611         146.002
0.576                   -1.43196        -162.857          -50.675        -111.421         -50.6749        -111.424       -0.0148012         145.929
0.577                   -1.47191         -163.46          -50.552         -113.13         -50.5519        -113.134       -0.0149435         145.856
0.578                   -1.51252        -164.062         -50.4299        -114.845         -50.4298        -114.849       -0.0150881         145.783
0.579                   -1.55375        -164.663         -50.3085        -116.565         -50.3084        -116.569       -0.0152349         145.709
0.58                    -1.59558        -165.262         -50.1879        -118.291         -50.1878        -118.295        -0.015384         145.635
0.581                   -1.63797         -165.86         -50.0681        -120.021         -50.0681        -120.025       -0.0155354         145.562
0.582                   -1.68089        -166.456         -49.9492        -121.756         -49.9491         -121.76       -0.0156891         145.488
0.583                   -1.72431        -167.051         -49.8311        -123.495          -49.831          -123.5       -0.0158452         145.414
0.584                   -1.76819        -167.643         -49.7139        -125.239         -49.7138        -125.244       -0.0160035         145.339
0.585                   -1.81249        -168.234         -49.5975        -126.988         -49.5975        -126.992       -0.0161641         145.265
0.586                   -1.85718        -168.824         -49.4821         -128.74          -49.482        -128.744       -0.0163271          145.19
0.587                   -1.90221        -169.411         -49.3675        -130.496         -49.3675        -130.501       -0.0164924         145.116
0.588                   -1.94755        -169.997         -49.2539        -132.256         -49.2538         -132.26       -0.0166599         145.041
0.589                   -1.99315        -170.582         -49.1412        -134.019         -49.1411        -134.024       -0.0168298         144.966
0.59                    -2.03898        -171.165         -49.0294        -135.786         -49.0294         -135.79       -0.0170019          144.89
0.591                   -2.08501        -171.747         -48.9186        -137.556         -48.9185         -137.56       -0.0171763         144.815
0.592                   -2.13119        -172.327         -48.8087        -139.328         -48.8086        -139.332        -0.017353         144.739
0.593                   -2.17749        -172.907         -48.6997        -141.103         -48.6997        -141.107       -0.0175318         144.664
0.594                   -2.22388        -173.486         -48.5917         -142.88         -48.5917        -142.884       -0.0177129         144.588
0.595                   -2.27033        -174.064         -48.4847        -144.659         -48.4847        -144.663       -0.0178962         144.512
0.596                   -2.31681        -174.642         -48.3786         -146.44         -48.3786        -146.444       -0.0180817         144.436
0.597                    -2.3633         -175.22         -48.2734        -148.222         -48.2735        -148.227       -0.0182693         144.359
0.598                   -2.40977        -175.799         -48.1692        -150.006         -48.1693         -150.01       -0.0184591         144.283
0.599                   -2.45622        -176.378          -48.066        -151.791          -48.066        -151.795       -0.0186511         144.206
0.6                     -2.50262        -176.958         -47.9636        -153.577         -47.9637        -153.581       -0.0188452         144.129
0.601                   -2.54896        -177.539         -47.8622        -155.363         -47.8623        -155.367       -0.0190415         144.052
0.602                   -2.59525        -178.122         -47.7617        -157.149         -47.7618        -157.153       -0.0192399         143.974
0.603                   -2.64148        -178.707         -47.6621        -158.936         -47.6622         -158.94       -0.0194404         143.897
0.604                   -2.68765        -179.294         -47.5634        -160.722         -47.5635        -160.726       -0.0196431         143.819
0.605                   -2.73377        -179.884         -47.4655        -162.508         -47.4656        -162.511        -0.019848         143.741
0.606                   -2.77985         179.523         -47.3686        -164.293         -47.3686        -164.297       -0.0200551         143.663
0.607                   -2.82591         178.926         -47.2724        -166.077         -47.2725        -166.081       -0.0202643         143.585
0.608                   -2.87198         178.326          -47.177        -167.861         -47.1771        -167.864       -0.0204759         143.506
0.609                   -2.91806         177.721         -47.0825        -169.642         -47.0826        -169.645       -0.0206897         143.427
0.61                     -2.9642         177.113         -46.9887        -171.423         -46.9888        -171.425       -0.0209058         143.348
0.611                   -3.01043         176.499         -46.8957        -173.201         -46.8958        -173.203       -0.0211243         143.269
0.612                   -3.05678          175.88         -46.8033        -174.977         -46.8034         -174.98       -0.0213452          143.19
0.613                   -3.10329         175.255         -46.7117        -176.752         -46.7118        -176.754       -0.0215686          143.11
0.614                      -3.15         174.625         -46.6207        -178.523         -46.6208        -178.526       -0.0217945          143.03
0.615                   -3.19697         173.989         -46.5304         179.707         -46.5305         179.705        -0.022023          142.95
0.616                   -3.24424         173.347         -46.4407          177.94         -46.4408         177.939       -0.0222542          142.87
0.617                   -3.29186         172.698         -46.3515         176.176         -46.3516         176.175       -0.0224882         142.789
0.618                   -3.33988         172.042         -46.2629         174.415          -46.263         174.414       -0.0227249         142.709
0.619                   -3.38837         171.379         -46.1748         172.658         -46.1749         172.656       -0.0229646         142.628
0.62                    -3.43738         170.709         -46.0872         170.903         -46.0872         170.902       -0.0232073         142.546
0.621                   -3.48697         170.032              -46         169.151              -46          169.15       -0.0234531         142.465
0.622                    -3.5372         169.347         -45.9132         167.403         -45.9133         167.402        -0.023702         142.383
0.623                   -3.58814         168.654         -45.8268         165.658         -45.8268         165.658       -0.0239542         142.301
0.624                   -3.63986         167.954         -45.7407         163.917         -45.7408         163.916       -0.0242099         142.219
0.625                   -3.69242         167.246          -45.655         162.179          -45.655         162.179        -0.024469         142.136
0.626                   -3.74588         166.529         -45.5695         160.445         -45.5695         160.445       -0.0247317         142.054
0.627                   -3.80032         165.805         -45.4843         158.714         -45.4843         158.714        -0.024998         141.971
0.628                   -3.85581         165.073         -45.3992         156.987         -45.3992         156.987       -0.0252683         141.887
0.629                   -3.91242         164.332         -45.3144         155.263         -45.3144         155.263       -0.0255424         141.804
0.63                    -3.97022         163.583         -45.2297         153.543         -45.2296         153.543       -0.0258206          141.72
0.631                   -4.02928         162.827         -45.1451         151.826          -45.145         151.827       -0.0261029         141.636
0.632                   -4.08968         162.062         -45.0605         150.113         -45.0605         150.113       -0.0263895         141.552
0.633                   -4.15149         161.288         -44.9761         148.403          -44.976         148.403       -0.0266805         141.467
0.634                   -4.21479         160.507         -44.8916         146.696         -44.8915         146.696        -0.026976         141.382
0.635                   -4.27965         159.718         -44.8071         144.992          -44.807         144.993       -0.0272762         141.297
0.636                   -4.34615         158.921         -44.7226         143.291         -44.7225         143.292       -0.0275811         141.211
0.637                   -4.41437         158.116         -44.6381         141.593         -44.6379         141.594       -0.0278909         141.125
0.638                   -4.48439         157.303         -44.5534         139.898         -44.5533         139.899       -0.0282058         141.039
0.639                   -4.55628         156.483         -44.4687         138.206         -44.4685         138.206       -0.0285257         140.953
0.64                    -4.63014         155.655         -44.3838         136.515         -44.3836         136.516        -0.028851         140.866
0.641                   -4.70603          154.82         -44.2988         134.827         -44.2986         134.828       -0.0291817         140.779
0.642                   -4.78405         153.978         -44.2136         133.141         -44.2134         133.142       -0.0295179         140.691
0.643                   -4.86428         153.129         -44.1283         131.457         -44.1281         131.458       -0.0298599         140.604
0.644                   -4.94679         152.274         -44.0427         129.775         -44.0425         129.776       -0.0302076         140.516
0.645                   -5.03169         151.412          -43.957         128.093         -43.9568         128.094       -0.0305613         140.427
0.646                   -5.11905         150.543         -43.8711         126.414         -43.8709         126.414       -0.0309211         140.338
0.647                   -5.20897         149.669          -43.785         124.735         -43.7848         124.735       -0.0312872         140.249
0.648                   -5.30154         148.789         -43.6987         123.056         -43.6985         123.057       -0.0316597          140.16
0.649                   -5.39685         147.904         -43.6122         121.379          -43.612         121.379       -0.0320388          140.07
0.65                    -5.49499         147.014         -43.5256         119.701         -43.5253         119.702       -0.0324245          139.98
0.651                   -5.59606         146.119         -43.4387         118.023         -43.4384         118.024       -0.0328171          139.89
0.652                   -5.70015          145.22         -43.3517         116.346         -43.3514         116.346       -0.0332168         139.799
0.653                   -5.80737         144.318         -43.2645         114.667         -43.2643         114.668       -0.0336236         139.707
0.654                   -5.91781         143.412         -43.1772         112.988          -43.177         112.989       -0.0340377         139.616
0.655                   -6.03158         142.503         -43.0898         111.308         -43.0896         111.309       -0.0344594         139.524
0.656                   -6.14878         141.592         -43.0024         109.627         -43.0021         109.628       -0.0348888         139.432
0.657                   -6.26951         140.679         -42.9149         107.945         -42.9146         107.945        -0.035326         139.339
0.658                   -6.39389         139.765         -42.8273         106.261         -42.8271         106.261       -0.0357712         139.246
0.659                   -6.52202         138.851         -42.7398         104.575         -42.7396         104.576       -0.0362246         139.152
0.66                    -6.65402         137.936         -42.6524         102.888         -42.6521         102.888       -0.0366865         139.058
0.661                   -6.78999         137.023         -42.5651         101.198         -42.5648         101.198       -0.0371569         138.964
0.662                   -6.93006         136.111         -42.4779         99.5064         -42.4776         99.5065       -0.0376361         138.869
0.663                   -7.07433         135.202         -42.3909         97.8125         -42.3907         97.8125       -0.0381242         138.774
0.664                   -7.22293         134.296         -42.3042         96.1162         -42.3039         96.1161       -0.0386216         138.678
0.665                   -7.37598         133.395         -42.2177         94.4175         -42.2175         94.4174       -0.0391283         138.582
0.666                    -7.5336         132.498         -42.1317         92.7165         -42.1315         92.7164       -0.0396446         138.485
0.667                    -7.6959         131.609          -42.046         91.0132         -42.0458          91.013       -0.0401707         138.388
0.668                   -7.86302         130.727         -41.9608         89.3076         -41.9606         89.3074       -0.0407068         138.291
0.669                   -8.03507         129.854         -41.8761         87.5998          -41.876         87.5996       -0.0412531         138.193
0.67                    -8.21219         128.991          -41.792           85.89         -41.7919         85.8898         -0.04181         138.094
0.671                   -8.39449         128.139         -41.7085         84.1782         -41.7084          84.178       -0.0423775         137.995
0.672                    -8.5821         127.301         -41.6257         82.4648         -41.6256         82.4646        -0.042956         137.896
0.673                   -8.77514         126.478         -41.5437         80.7499         -41.5436         80.7497       -0.0435457         137.796
0.674                   -8.97374         125.672         -41.4624         79.0338         -41.4623         79.0336       -0.0441469         137.696
0.675                   -9.17801         124.883         -41.3819         77.3169         -41.3819         77.3167       -0.0447597         137.595
0.676                   -9.38806         124.116         -41.3024         75.5993         -41.3023         75.5992       -0.0453846         137.493
0.677                   -9.60401         123.371         -41.2237         73.8816         -41.2236         73.8815       -0.0460217         137.391
0.678                   -9.82597         122.651         -41.1459         72.1641         -41.1459          72.164       -0.0466713         137.289
0.679                    -10.054         121.959         -41.0691         70.4472         -41.0691         70.4472       -0.0473338         137.186
0.68                    -10.2882         121.298         -40.9933         68.7313         -40.9933         68.7313       -0.0480094         137.082
0.681                   -10.5287         120.669         -40.9185          67.017         -40.9185          67.017       -0.0486984         136.978
0.682                   -10.7755         120.077         -40.8447         65.3046         -40.8447         65.3047       -0.0494012         136.873
0.683                   -11.0287         119.525         -40.7719         63.5946         -40.7719         63.5947        -0.050118         136.768
0.684                   -11.2882         119.017         -40.7001         61.8876         -40.7001         61.8877       -0.0508492         136.662
0.685                   -11.5541         118.556         -40.6293         60.1839         -40.6293         60.1841       -0.0515951         136.556
0.686                   -11.8263         118.146         -40.5594         58.4841         -40.5594         58.4844       -0.0523562         136.449
0.687                   -12.1047         117.793         -40.4905         56.7887         -40.4905          56.789       -0.0531326         136.341
0.688                   -12.3892         117.501         -40.4225          55.098         -40.4226         55.0984       -0.0539249         136.233
0.689                   -12.6796         117.276         -40.3554         53.4126         -40.3555          53.413       -0.0547333         136.124
0.69                    -12.9756         117.122         -40.2892         51.7328         -40.2892         51.7332       -0.0555583         136.014
0.691                   -13.2769         117.046         -40.2237          50.059         -40.2237         50.0595       -0.0564002         135.904
0.692                    -13.583         117.054         -40.1589         48.3917         -40.1589         48.3921       -0.0572596         135.793
0.693                   -13.8933         117.152         -40.0948          46.731         -40.0949         46.7315       -0.0581367         135.681
0.694                   -14.2072         117.347         -40.0314         45.0774         -40.0314         45.0779       -0.0590321         135.568
0.695                   -14.5238         117.646         -39.9684         43.4311         -39.9685         43.4316       -0.0599462         135.455
0.696                   -14.8421         118.056          -39.906         41.7923          -39.906         41.7928       -0.0608794         135.342
0.697                   -15.1608         118.583          -39.844         40.1612          -39.844         40.1617       -0.0618322         135.227