! TOUCHSTONE file generated by CST MICROWAVE STUDIO
! Date and time: Fri Oct 30 08:07:05 2020
! Project name: Scenario_1_Circular_Tissue_out_of_Line.cst
! Parameters = {dy1=243.594; L_HA=400; MT=2.54; Rad_Dielectric=30; Rad_Lower=7.3; Rad_Upper=30; a_HA=580; a_WG=246; b_HA=500; b_WG=121; c_HA=0; c_WG=187; d_feed=85; dx1=520; h_feed=15; h_lower=18; h_upper=40}
! Header version: 2018
! Port assignment regex: !\s*Touchstone port\s*([0-9]+)\s*=\s*(CST MWS port|CST DS port)\s*([0-9]+|Zmin|Zmax)\s*\(\"(.*)\"\)(\s*mode\s*([0-9]+))?.*
! Touchstone port assignment:
! Touchstone port 1 = CST MWS port 1 ("")
! Touchstone port 2 = CST MWS port 2 ("")
# GHz S DB R 50
0.5                    -0.142073         -122.47          -62.863        -78.0048         -62.8624        -78.0015      -0.00731761         151.121
0.501                  -0.150746        -122.919         -62.6162        -79.7163         -62.6176        -79.7381      -0.00738383         151.056
0.502                  -0.159582        -123.369         -62.3727        -81.4394          -62.376        -81.4838      -0.00745115          150.99
0.503                  -0.168577         -123.82         -62.1325        -83.1744         -62.1376         -83.239      -0.00751958         150.925
0.504                  -0.177732        -124.272         -61.8955        -84.9213         -61.9024        -85.0039      -0.00758911         150.859
0.505                  -0.187043        -124.725         -61.6618        -86.6804         -61.6702        -86.7789      -0.00765975         150.794
0.506                   -0.19651        -125.179         -61.4312        -88.4516         -61.4411         -88.564       -0.0077315         150.728
0.507                   -0.20613        -125.634         -61.2038        -90.2351         -61.2149        -90.3596      -0.00780436         150.662
0.508                  -0.215902         -126.09         -60.9795        -92.0309         -60.9918        -92.1657      -0.00787833         150.596
0.509                  -0.225824        -126.546         -60.7582         -93.839         -60.7716        -93.9825      -0.00795341          150.53
0.51                   -0.235894        -127.004         -60.5399        -95.6594         -60.5543        -95.8099       -0.0080296         150.464
0.511                  -0.246111        -127.463         -60.3247         -97.492         -60.3399        -97.6482       -0.0081069         150.398
0.512                  -0.256472        -127.923         -60.1124        -99.3368         -60.1284        -99.4973      -0.00818532         150.332
0.513                  -0.266977        -128.385         -59.9031        -101.194         -59.9198        -101.357      -0.00826484         150.266
0.514                  -0.277622        -128.847         -59.6967        -103.062          -59.714        -103.228      -0.00834548         150.199
0.515                  -0.288407         -129.31         -59.4933        -104.943          -59.511        -105.109      -0.00842723         150.133
0.516                   -0.29933        -129.775         -59.2927        -106.835         -59.3108        -107.001      -0.00851009         150.066
0.517                  -0.310389        -130.241         -59.0951        -108.739         -59.1134        -108.903      -0.00859406             150
0.518                  -0.321582        -130.708         -58.9002        -110.653         -58.9188        -110.816      -0.00867914         149.933
0.519                  -0.332907        -131.176         -58.7083        -112.579          -58.727        -112.738      -0.00876533         149.866
0.52                   -0.344364        -131.646         -58.5192        -114.515         -58.5379        -114.671      -0.00885263         149.799
0.521                   -0.35595        -132.117         -58.3329        -116.461         -58.3515        -116.613      -0.00894104         149.732
0.522                  -0.367664        -132.589         -58.1494        -118.417         -58.1679        -118.565      -0.00903055         149.665
0.523                  -0.379504        -133.062         -57.9687        -120.383          -57.987        -120.525      -0.00912117         149.598
0.524                  -0.391469        -133.538         -57.7908        -122.359         -57.8087        -122.495      -0.00921289         149.531
0.525                  -0.403558        -134.014         -57.6156        -124.343         -57.6332        -124.473      -0.00930571         149.464
0.526                  -0.415769        -134.492         -57.4432        -126.335         -57.4603        -126.459      -0.00939963         149.396
0.527                  -0.428102        -134.972         -57.2734        -128.336         -57.2901        -128.454      -0.00949464         149.329
0.528                  -0.440554        -135.453         -57.1063        -130.344         -57.1225        -130.455      -0.00959075         149.261
0.529                  -0.453126        -135.936         -56.9419         -132.36         -56.9575        -132.464      -0.00968795         149.194
0.53                   -0.465816         -136.42         -56.7801        -134.383          -56.795         -134.48      -0.00978623         149.126
0.531                  -0.478624        -136.906         -56.6209        -136.411         -56.6351        -136.502       -0.0098856         149.058
0.532                   -0.49155        -137.394         -56.4643        -138.446         -56.4778         -138.53      -0.00998605          148.99
0.533                  -0.504592        -137.884         -56.3101        -140.487         -56.3229        -140.563       -0.0100876         148.922
0.534                   -0.51775        -138.376         -56.1585        -142.532         -56.1704        -142.602       -0.0101902         148.854
0.535                  -0.531026        -138.869         -56.0093        -144.582         -56.0204        -144.645       -0.0102938         148.786
0.536                  -0.544419        -139.365         -55.8625        -146.636         -55.8728        -146.693       -0.0103986         148.718
0.537                  -0.557929        -139.863          -55.718        -148.693         -55.7275        -148.744       -0.0105043         148.649
0.538                  -0.571558        -140.362         -55.5758        -150.754         -55.5845        -150.799       -0.0106112         148.581
0.539                  -0.585306        -140.864         -55.4359        -152.818         -55.4437        -152.857        -0.010719         148.512
0.54                   -0.599175        -141.369         -55.2982        -154.884         -55.3051        -154.917        -0.010828         148.444
0.541                  -0.613167        -141.875         -55.1627        -156.952         -55.1687         -156.98       -0.0109379         148.375
0.542                  -0.627283        -142.384         -55.0292        -159.021         -55.0344        -159.044       -0.0110489         148.306
0.543                  -0.641527        -142.896         -54.8978        -161.091         -54.9022         -161.11       -0.0111609         148.237
0.544                  -0.655901         -143.41         -54.7683        -163.163         -54.7719        -163.177       -0.0112739         148.168
0.545                  -0.670409        -143.927         -54.6408        -165.234         -54.6435        -165.244       -0.0113879         148.099
0.546                  -0.685055        -144.446         -54.5151        -167.306         -54.5171        -167.312       -0.0115029         148.029
0.547                  -0.699843        -144.968         -54.3912        -169.377         -54.3924         -169.38       -0.0116189          147.96
0.548                  -0.714778        -145.494          -54.269        -171.447         -54.2695        -171.447       -0.0117359         147.891
0.549                  -0.729866        -146.022         -54.1485        -173.517         -54.1483        -173.514       -0.0118539         147.821
0.55                   -0.745113        -146.553         -54.0296        -175.585         -54.0287        -175.579       -0.0119729         147.751
0.551                  -0.760527        -147.088         -53.9121        -177.651         -53.9107        -177.644       -0.0120928         147.681
0.552                  -0.776115        -147.625         -53.7962        -179.716         -53.7942        -179.707       -0.0122137         147.611
0.553                  -0.791887        -148.167         -53.6816         178.221         -53.6791         178.232       -0.0123355         147.541
0.554                  -0.807851        -148.711         -53.5684         176.161         -53.5654         176.173       -0.0124583         147.471
0.555                  -0.824018         -149.26         -53.4564         174.103          -53.453         174.117        -0.012582         147.401
0.556                    -0.8404        -149.812         -53.3456         172.048         -53.3418         172.062       -0.0127067          147.33
0.557                   -0.85701        -150.367          -53.236         169.995         -53.2318          170.01       -0.0128324          147.26
0.558                   -0.87386        -150.927         -53.1274         167.946         -53.1229         167.961        -0.012959         147.189
0.559                  -0.890967        -151.491         -53.0198         165.899         -53.0151         165.915       -0.0130865         147.118
0.56                   -0.908346        -152.059         -52.9132         163.856         -52.9082         163.872        -0.013215         147.048
0.561                  -0.926015        -152.631         -52.8074         161.816         -52.8023         161.832       -0.0133445         146.976
0.562                  -0.943992        -153.208         -52.7025         159.779         -52.6973         159.795       -0.0134749         146.905
0.563                  -0.962298        -153.789         -52.5983         157.746         -52.5931         157.761       -0.0136063         146.834
0.564                  -0.980955        -154.375         -52.4949         155.717         -52.4896         155.731       -0.0137387         146.763
0.565                  -0.999986        -154.965         -52.3921          153.69         -52.3868         153.704       -0.0138721         146.691
0.566                   -1.01942         -155.56         -52.2899         151.668         -52.2847         151.681       -0.0140065         146.619
0.567                   -1.03927         -156.16         -52.1882         149.648         -52.1831         149.661       -0.0141419         146.548
0.568                   -1.05958        -156.765         -52.0871         147.633         -52.0822         147.644       -0.0142785         146.476
0.569                   -1.08038        -157.375         -51.9864          145.62         -51.9817         145.631       -0.0144161         146.404
0.57                    -1.10169        -157.991         -51.8862         143.611         -51.8816         143.622       -0.0145548         146.331
0.571                   -1.12355        -158.611         -51.7863         141.606          -51.782         141.615       -0.0146948         146.259
0.572                     -1.146        -159.237         -51.6868         139.604         -51.6827         139.612       -0.0148359         146.187
0.573                   -1.16907        -159.868         -51.5876         137.605         -51.5838         137.612       -0.0149782         146.114
0.574                   -1.19281        -160.505         -51.4886         135.609         -51.4851         135.615       -0.0151219         146.041
0.575                   -1.21724        -161.147         -51.3899         133.616         -51.3867         133.621       -0.0152669         145.968
0.576                   -1.24243        -161.795         -51.2914         131.626         -51.2886         131.631       -0.0154132         145.895
0.577                    -1.2684        -162.448         -51.1931         129.639         -51.1906         129.643        -0.015561         145.822
0.578                   -1.29521        -163.106         -51.0949         127.654         -51.0928         127.658       -0.0157103         145.749
0.579                    -1.3229         -163.77         -50.9969         125.672         -50.9951         125.675       -0.0158612         145.675
0.58                    -1.35152        -164.439         -50.8989         123.693         -50.8975         123.695       -0.0160137         145.601
0.581                   -1.38113        -165.114         -50.8011         121.716         -50.8001         121.718       -0.0161679         145.527
0.582                   -1.41176        -165.794         -50.7034         119.741         -50.7027         119.742       -0.0163239         145.453
0.583                   -1.44347        -166.478         -50.6057         117.768         -50.6054         117.769       -0.0164817         145.379
0.584                   -1.47631        -167.168         -50.5081         115.797         -50.5081         115.798       -0.0166414         145.305
0.585                   -1.51034        -167.862         -50.4105         113.828         -50.4109         113.829       -0.0168031          145.23
0.586                   -1.54559        -168.561          -50.313          111.86         -50.3137         111.861       -0.0169668         145.156
0.587                   -1.58212        -169.265         -50.2155         109.894         -50.2165         109.895       -0.0171326         145.081
0.588                   -1.61997        -169.972          -50.118          107.93         -50.1193          107.93       -0.0173006         145.006
0.589                   -1.65919        -170.683         -50.0206         105.966         -50.0222         105.967       -0.0174709         144.931
0.59                    -1.69983        -171.397         -49.9233         104.004         -49.9251         104.004       -0.0176434         144.855
0.591                   -1.74191        -172.115         -49.8259         102.042          -49.828         102.043       -0.0178184          144.78
0.592                   -1.78549        -172.835         -49.7287         100.081         -49.7309         100.082       -0.0179958         144.704
0.593                   -1.83058        -173.558         -49.6315          98.121         -49.6338         98.1223       -0.0181757         144.628
0.594                   -1.87723        -174.282         -49.5344         96.1612         -49.5368         96.1628       -0.0183581         144.552
0.595                   -1.92544        -175.008         -49.4374         94.2018         -49.4399         94.2037       -0.0185432         144.476
0.596                   -1.97525        -175.735         -49.3405         92.2426          -49.343         92.2448        -0.018731           144.4
0.597                   -2.02665        -176.462         -49.2437         90.2835         -49.2462         90.2859       -0.0189214         144.323
0.598                   -2.07967         -177.19          -49.147         88.3244         -49.1495         88.3271       -0.0191147         144.246
0.599                   -2.13429        -177.917         -49.0506         86.3651         -49.0529          86.368       -0.0193107         144.169
0.6                     -2.19052        -178.643         -48.9543         84.4056         -48.9565         84.4087       -0.0195096         144.092
0.601                   -2.24833        -179.367         -48.8582         82.4458         -48.8602         82.4489       -0.0197114         144.015
0.602                   -2.30771          179.91         -48.7624         80.4856         -48.7641         80.4887       -0.0199161         143.937
0.603                   -2.36864          179.19         -48.6668         78.5249         -48.6683         78.5278       -0.0201237          143.86
0.604                   -2.43108         178.472         -48.5715         76.5637         -48.5727         76.5663       -0.0203344         143.782
0.605                   -2.49498         177.758         -48.4765         74.6019         -48.4773          74.604       -0.0205481         143.704
0.606                   -2.56032         177.047         -48.3819         72.6394         -48.3823         72.6409       -0.0207648         143.625
0.607                   -2.62703         176.341         -48.2877         70.6762         -48.2876         70.6769       -0.0209845         143.547
0.608                   -2.69507         175.639         -48.1939         68.7123         -48.1933         68.7119       -0.0212074         143.468
0.609                   -2.76436         174.941         -48.1006         66.7478         -48.0995         66.7461       -0.0214334         143.389
0.61                    -2.83486         174.249         -48.0077         64.7825          -48.006         64.7792       -0.0216626          143.31
0.611                   -2.90649         173.561         -47.9153         62.8165         -47.9131         62.8114       -0.0218949          143.23
0.612                   -2.97918         172.879         -47.8236         60.8499         -47.8206         60.8427       -0.0221304         143.151
0.613                   -3.05287         172.203         -47.7324         58.8827         -47.7288         58.8731       -0.0223692         143.071
0.614                   -3.12749         171.532         -47.6418          56.915         -47.6375         56.9026       -0.0226112         142.991
0.615                   -3.20296         170.866         -47.5519         54.9468         -47.5469         54.9313       -0.0228565         142.911
0.616                   -3.27921         170.206         -47.4627         52.9783          -47.457         52.9593        -0.023105          142.83
0.617                   -3.35618         169.552         -47.3743         51.0096         -47.3678         50.9867        -0.023357          142.75
0.618                    -3.4338         168.903         -47.2866         49.0407         -47.2794         49.0136       -0.0236122         142.669
0.619                     -3.512         168.259         -47.1997         47.0719         -47.1918         47.0402       -0.0238709         142.587
0.62                    -3.59073         167.621         -47.1137         45.1034          -47.105         45.0666        -0.024133         142.506
0.621                   -3.66994         166.987         -47.0285         43.1353         -47.0191          43.093       -0.0243986         142.424
0.622                   -3.74956         166.358         -46.9442         41.1678         -46.9342         41.1197       -0.0246676         142.342
0.623                   -3.82955         165.733         -46.8609         39.2011         -46.8502         39.1468       -0.0249403          142.26
0.624                   -3.90987         165.112         -46.7785         37.2355         -46.7672         37.1746       -0.0252164         142.178
0.625                   -3.99048         164.495         -46.6971         35.2713         -46.6852         35.2033       -0.0254963         142.095
0.626                   -4.07135         163.881         -46.6167         33.3086         -46.6042         33.2334       -0.0257798         142.012
0.627                   -4.15246          163.27         -46.5374         31.3479         -46.5244          31.265        -0.026067         141.929
0.628                   -4.23378         162.662         -46.4591         29.3894         -46.4457         29.2985        -0.026358         141.846
0.629                    -4.3153         162.056         -46.3818         27.4335         -46.3681         27.3343       -0.0266529         141.762
0.63                    -4.39701         161.452         -46.3056         25.4804         -46.2916         25.3728       -0.0269516         141.678
0.631                   -4.47891         160.849         -46.2305         23.5305         -46.2163         23.4143       -0.0272543         141.594
0.632                     -4.561         160.247         -46.1565         21.5842         -46.1422         21.4593        -0.027561         141.509
0.633                   -4.64328         159.646         -46.0836         19.6419         -46.0693         19.5081       -0.0278718         141.424
0.634                   -4.72576         159.046         -46.0118          17.704         -45.9976         17.5613       -0.0281867         141.339
0.635                   -4.80848         158.445          -45.941         15.7708          -45.927         15.6193       -0.0285059         141.254
0.636                   -4.89143         157.844         -45.8713         13.8427         -45.8576         13.6825       -0.0288294         141.168
0.637                   -4.97466         157.242         -45.8026         11.9202         -45.7894         11.7515       -0.0291572         141.082
0.638                   -5.05818         156.639         -45.7349         10.0036         -45.7223          9.8267       -0.0294895         140.996
0.639                   -5.14205         156.034         -45.6683         8.09343         -45.6563         7.90863       -0.0298264         140.909
0.64                    -5.22628         155.428         -45.6026         6.18998         -45.5914         5.99777       -0.0301679         140.822
0.641                   -5.31092         154.819         -45.5378          4.2937         -45.5275         4.09461       -0.0305141         140.735
0.642                   -5.39603         154.208         -45.4739         2.40498         -45.4645         2.19963       -0.0308652         140.647
0.643                   -5.48164         153.595         -45.4108        0.524183         -45.4026          0.3133       -0.0312211          140.56
0.644                   -5.56781         152.978         -45.3485        -1.34831         -45.3414        -1.56393       -0.0315821         140.471
0.645                   -5.65459         152.359         -45.2869        -3.21215         -45.2811        -3.43163       -0.0319483         140.383
0.646                   -5.74204         151.736         -45.2259        -5.06702         -45.2215        -5.28938       -0.0323197         140.294
0.647                   -5.83021          151.11         -45.1655         -6.9126         -45.1625         -7.1368       -0.0326964         140.205
0.648                   -5.91918          150.48         -45.1056        -8.74862          -45.104        -8.97356       -0.0330786         140.115
0.649                     -6.009         149.846          -45.046        -10.5748          -45.046        -10.7994       -0.0334665         140.025
0.65                    -6.09975         149.209         -44.9868        -12.3911         -44.9883        -12.6139         -0.03386         139.935
0.651                   -6.19149         148.567         -44.9278        -14.1971         -44.9308        -14.4171       -0.0342594         139.844
0.652                    -6.2843         147.921          -44.869        -15.9928         -44.8734        -16.2087       -0.0346648         139.753
0.653                   -6.37824         147.271         -44.8101        -17.7782         -44.8159        -17.9887       -0.0350764         139.662
0.654                    -6.4734         146.616         -44.7512        -19.5532         -44.7583        -19.7571       -0.0354942          139.57
0.655                   -6.56986         145.957          -44.692        -21.3179         -44.7004        -21.5139       -0.0359185         139.478
0.656                   -6.66769         145.293         -44.6325        -23.0723         -44.6421        -23.2594       -0.0363493         139.385
0.657                   -6.76699         144.626         -44.5726        -24.8166         -44.5832        -24.9937       -0.0367869         139.292
0.658                   -6.86784         143.954         -44.5122        -26.5511         -44.5236        -26.7172       -0.0372313         139.199
0.659                   -6.97032         143.277         -44.4511         -28.276         -44.4632        -28.4303       -0.0376829         139.105
0.66                    -7.07454         142.596         -44.3893        -29.9917         -44.4018        -30.1335       -0.0381417         139.011
0.661                   -7.18058         141.912         -44.3265        -31.6986         -44.3393        -31.8274       -0.0386079         138.916
0.662                   -7.28854         141.223         -44.2628        -33.3974         -44.2757        -33.5128       -0.0390817         138.821
0.663                   -7.39853          140.53         -44.1981        -35.0885         -44.2108        -35.1903       -0.0395633         138.726
0.664                   -7.51064         139.834         -44.1321        -36.7726         -44.1444        -36.8609        -0.040053          138.63
0.665                   -7.62498         139.134          -44.065        -38.4504         -44.0766        -38.5254       -0.0405508         138.534
0.666                   -7.74166          138.43         -43.9965        -40.1227         -44.0072        -40.1849       -0.0410571         138.437
0.667                   -7.86079         137.724         -43.9266        -41.7903         -43.9363        -41.8403       -0.0415719          138.34
0.668                   -7.98249         137.016         -43.8553         -43.454         -43.8637        -43.4928       -0.0420957         138.242
0.669                   -8.10688         136.305         -43.7825        -45.1149         -43.7895        -45.1434       -0.0426285         138.144
0.67                    -8.23408         135.592         -43.7082        -46.7739         -43.7136        -46.7932       -0.0431706         138.045
0.671                   -8.36421         134.877         -43.6325        -48.4318         -43.6362        -48.4433       -0.0437223         137.946
0.672                   -8.49741         134.162         -43.5552        -50.0896         -43.5571        -50.0948       -0.0442838         137.846
0.673                   -8.63381         133.446         -43.4765        -51.7484         -43.4765        -51.7486       -0.0448554         137.746
0.674                   -8.77354         132.731         -43.3963        -53.4089         -43.3944        -53.4059       -0.0454373         137.645
0.675                   -8.91675         132.016         -43.3148        -55.0722          -43.311        -55.0674       -0.0460298         137.544
0.676                   -9.06358         131.303         -43.2319         -56.739         -43.2262        -56.7339       -0.0466333         137.442
0.677                   -9.21418         130.592         -43.1478        -58.4101         -43.1404        -58.4063       -0.0472479          137.34
0.678                    -9.3687         129.884         -43.0626        -60.0863         -43.0535        -60.0851        -0.047874         137.237
0.679                   -9.52729         129.181         -42.9763        -61.7682         -42.9656        -61.7708       -0.0485119         137.133
0.68                    -9.69012         128.483         -42.8892        -63.4563          -42.877        -63.4638        -0.049162         137.029
0.681                   -9.85735         127.792         -42.8012         -65.151         -42.7878        -65.1644       -0.0498245         136.924
0.682                   -10.0291         127.108         -42.7125        -66.8527         -42.6981        -66.8728       -0.0504998         136.819
0.683                   -10.2056         126.433         -42.6233        -68.5617         -42.6081        -68.5889       -0.0511883         136.713
0.684                   -10.3871         125.769         -42.5337         -70.278         -42.5178        -70.3128       -0.0518902         136.607
0.685                   -10.5735         125.118         -42.4438        -72.0017         -42.4275        -72.0443       -0.0526061           136.5
0.686                   -10.7652          124.48         -42.3538        -73.7327         -42.3372        -73.7831       -0.0533362         136.392
0.687                   -10.9624         123.859         -42.2637        -75.4708          -42.247        -75.5288        -0.054081         136.284
0.688                   -11.1651         123.256         -42.1737        -77.2158         -42.1571        -77.2811       -0.0548409         136.175
0.689                   -11.3735         122.673         -42.0838        -78.9673         -42.0676        -79.0395       -0.0556162         136.065
0.69                    -11.5878         122.114         -41.9943         -80.725         -41.9785        -80.8034       -0.0564075         135.955
0.691                   -11.8082         121.581         -41.9051        -82.4882         -41.8899        -82.5723       -0.0572152         135.844
0.692                   -12.0347         121.078         -41.8164        -84.2565         -41.8018        -84.3455       -0.0580397         135.732
0.693                   -12.2675         120.607         -41.7281        -86.0294         -41.7144        -86.1224       -0.0588816          135.62
0.694                   -12.5068         120.172         -41.6405        -87.8061         -41.6276        -87.9023       -0.0597413         135.507
0.695                   -12.7525         119.778         -41.5534        -89.5862         -41.5414        -89.6847       -0.0606193         135.393
0.696                   -13.0048         119.429          -41.467        -91.3688          -41.456        -91.4689       -0.0615161         135.278
0.697                   -13.2636         119.129         -41.3812        -93.1535         -41.3712        -93.2542       -0.0624324         135.163