! TOUCHSTONE file generated by CST MICROWAVE STUDIO
! Date and time: Wed Oct 28 19:40:16 2020
! Project name: Scenario_1_Circular_Tissue_out_of_Line_v2.cst
! Parameters = {dy1=259.5; L_HA=400; MT=2.54; Rad_Dielectric=30; Rad_Lower=7.3; Rad_Upper=30; a_HA=580; a_WG=246; b_HA=500; b_WG=121; c_HA=0; c_WG=187; d_feed=85; dx1=346; h_feed=15; h_lower=18; h_upper=40}
! Header version: 2018
! Port assignment regex: !\s*Touchstone port\s*([0-9]+)\s*=\s*(CST MWS port|CST DS port)\s*([0-9]+|Zmin|Zmax)\s*\(\"(.*)\"\)(\s*mode\s*([0-9]+))?.*
! Touchstone port assignment:
! Touchstone port 1 = CST MWS port 1 ("")
! Touchstone port 2 = CST MWS port 2 ("")
# GHz S DB R 50
0.5                    -0.148602        -122.288         -61.5694        -2.02565         -61.5694        -2.02565      -0.00799107         151.131
0.501                  -0.152951        -122.723         -61.4506        -3.52308         -61.4506         -3.5228        -0.008052         151.066
0.502                  -0.157427         -123.16          -61.331        -5.01658         -61.3312        -5.01604      -0.00811323         151.001
0.503                  -0.162034          -123.6         -61.2107        -6.50641          -61.211        -6.50562      -0.00817477         150.936
0.504                  -0.166778        -124.043         -61.0898        -7.99285         -61.0901        -7.99182      -0.00823664          150.87
0.505                  -0.171664        -124.488         -60.9681        -9.47618         -60.9685        -9.47492      -0.00829885         150.805
0.506                  -0.176699        -124.936         -60.8458        -10.9567         -60.8462        -10.9552      -0.00836141         150.739
0.507                  -0.181888        -125.386         -60.7228        -12.4346         -60.7232        -12.4329      -0.00842434         150.674
0.508                  -0.187238        -125.839         -60.5991        -13.9102         -60.5995        -13.9084      -0.00848765         150.608
0.509                  -0.192755        -126.294         -60.4747        -15.3838         -60.4752        -15.3818      -0.00855137         150.542
0.51                   -0.198446        -126.752         -60.3497        -16.8557         -60.3502        -16.8535       -0.0086155         150.476
0.511                  -0.204318        -127.213          -60.224        -18.3261         -60.2246        -18.3238      -0.00868007          150.41
0.512                   -0.21038        -127.676         -60.0977        -19.7954         -60.0982        -19.7929      -0.00874508         150.344
0.513                  -0.216637        -128.143         -59.9708        -21.2637         -59.9713         -21.261      -0.00881056         150.278
0.514                  -0.223099        -128.612         -59.8432        -22.7313         -59.8437        -22.7286      -0.00887653         150.212
0.515                  -0.229773        -129.083         -59.7149        -24.1987         -59.7155        -24.1958        -0.008943         150.146
0.516                  -0.236668        -129.558         -59.5861        -25.6659         -59.5866        -25.6629      -0.00900999         150.079
0.517                  -0.243793        -130.036         -59.4566        -27.1333         -59.4571        -27.1303      -0.00907752         150.013
0.518                  -0.251157        -130.516         -59.3265        -28.6012          -59.327        -28.5981      -0.00914561         149.946
0.519                   -0.25877        -130.999         -59.1958        -30.0698         -59.1963        -30.0666      -0.00921428          149.88
0.52                    -0.26664        -131.486         -59.0645        -31.5394          -59.065        -31.5362      -0.00928354         149.813
0.521                  -0.274779        -131.975         -58.9326        -33.0104         -58.9331        -33.0071      -0.00935342         149.746
0.522                  -0.283196        -132.467         -58.8001        -34.4828         -58.8006        -34.4795      -0.00942394         149.679
0.523                  -0.291903        -132.962         -58.6671        -35.9571         -58.6675        -35.9538      -0.00949512         149.612
0.524                  -0.300909         -133.46         -58.5334        -37.4336         -58.5339        -37.4302      -0.00956698         149.545
0.525                  -0.310226        -133.961         -58.3993        -38.9124         -58.3997         -38.909      -0.00963954         149.478
0.526                  -0.319867        -134.465         -58.2645        -40.3938         -58.2649        -40.3905      -0.00971282         149.411
0.527                  -0.329841        -134.972         -58.1293        -41.8781         -58.1296        -41.8748      -0.00978685         149.344
0.528                  -0.340162        -135.483         -57.9935        -43.3657         -57.9938        -43.3624      -0.00986165         149.276
0.529                  -0.350842        -135.996         -57.8572        -44.8566         -57.8575        -44.8534      -0.00993724         149.209
0.53                   -0.361893        -136.512         -57.7204        -46.3513         -57.7207        -46.3481       -0.0100136         149.141
0.531                  -0.373328        -137.031         -57.5832        -47.8499         -57.5835        -47.8468       -0.0100909         149.073
0.532                   -0.38516        -137.553         -57.4455        -49.3528         -57.4457        -49.3497        -0.010169         149.005
0.533                  -0.397402        -138.078         -57.3073        -50.8601         -57.3076        -50.8571        -0.010248         148.937
0.534                  -0.410066        -138.606         -57.1688        -52.3722          -57.169        -52.3692       -0.0103279         148.869
0.535                  -0.423168        -139.138         -57.0298        -53.8892           -57.03        -53.8863       -0.0104087         148.801
0.536                  -0.436719        -139.672         -56.8905        -55.4114         -56.8906        -55.4086       -0.0104905         148.733
0.537                  -0.450733        -140.208         -56.7508        -56.9391         -56.7509        -56.9364       -0.0105733         148.665
0.538                  -0.465224        -140.748         -56.6108        -58.4725         -56.6109        -58.4699       -0.0106571         148.596
0.539                  -0.480206        -141.291         -56.4705        -60.0117         -56.4706        -60.0092        -0.010742         148.528
0.54                   -0.495691        -141.836           -56.33        -61.5571           -56.33        -61.5547       -0.0108279         148.459
0.541                  -0.511693        -142.384         -56.1892        -63.1088         -56.1892        -63.1065       -0.0109149          148.39
0.542                  -0.528225        -142.935         -56.0482        -64.6671         -56.0482        -64.6649        -0.011003         148.322
0.543                  -0.545299        -143.488          -55.907        -66.2321          -55.907          -66.23       -0.0110923         148.253
0.544                  -0.562929        -144.044         -55.7657         -67.804         -55.7657         -67.802       -0.0111827         148.184
0.545                  -0.581126        -144.603         -55.6243         -69.383         -55.6243        -69.3811       -0.0112743         148.114
0.546                  -0.599903        -145.163         -55.4829        -70.9692         -55.4828        -70.9675       -0.0113672         148.045
0.547                  -0.619269        -145.727         -55.3414        -72.5628         -55.3414        -72.5612       -0.0114614         147.976
0.548                  -0.639237        -146.292            -55.2         -74.164         -55.1999        -74.1625       -0.0115568         147.906
0.549                  -0.659815         -146.86         -55.0586        -75.7729         -55.0585        -75.7714       -0.0116535         147.837
0.55                   -0.681014        -147.429         -54.9174        -77.3895         -54.9173        -77.3882       -0.0117516         147.767
0.551                  -0.702842        -148.001         -54.7763        -79.0139         -54.7762        -79.0127       -0.0118511         147.697
0.552                  -0.725306        -148.574         -54.6355        -80.6463         -54.6353        -80.6452       -0.0119519         147.627
0.553                  -0.748413        -149.149         -54.4949        -82.2867         -54.4947        -82.2857       -0.0120542         147.557
0.554                  -0.772169        -149.726         -54.3546        -83.9352         -54.3544        -83.9343       -0.0121579         147.487
0.555                  -0.796579        -150.305         -54.2146        -85.5917         -54.2145        -85.5909       -0.0122632         147.416
0.556                  -0.821645        -150.884         -54.0751        -87.2563          -54.075        -87.2556       -0.0123699         147.346
0.557                  -0.847371        -151.465         -53.9361        -88.9289         -53.9359        -88.9283       -0.0124782         147.275
0.558                  -0.873757        -152.048         -53.7975        -90.6095         -53.7974         -90.609        -0.012588         147.205
0.559                  -0.900802        -152.631         -53.6596        -92.2981         -53.6594        -92.2976       -0.0126995         147.134
0.56                   -0.928505        -153.215         -53.5222        -93.9946         -53.5221        -93.9942       -0.0128126         147.063
0.561                  -0.956863          -153.8         -53.3856        -95.6988         -53.3855        -95.6985       -0.0129273         146.992
0.562                  -0.985871        -154.386         -53.2497        -97.4107         -53.2495        -97.4104       -0.0130437         146.921
0.563                   -1.01552        -154.972         -53.1145        -99.1301         -53.1144        -99.1298       -0.0131618         146.849
0.564                   -1.04581        -155.559         -52.9802        -100.857         -52.9801        -100.857       -0.0132817         146.778
0.565                   -1.07673        -156.146         -52.8468        -102.591         -52.8467         -102.59       -0.0134033         146.706
0.566                   -1.10826        -156.733         -52.7143        -104.331         -52.7142        -104.331       -0.0135266         146.634
0.567                   -1.14039        -157.321         -52.5828        -106.079         -52.5826        -106.079       -0.0136518         146.563
0.568                   -1.17312        -157.908         -52.4523        -107.832         -52.4522        -107.832       -0.0137788         146.491
0.569                   -1.20642        -158.496         -52.3228        -109.592         -52.3227        -109.592       -0.0139077         146.418
0.57                    -1.24028        -159.083         -52.1945        -111.358         -52.1944        -111.358       -0.0140385         146.346
0.571                   -1.27469         -159.67         -52.0673        -113.129         -52.0672        -113.129       -0.0141711         146.274
0.572                   -1.30962        -160.257         -51.9413        -114.906         -51.9412        -114.906       -0.0143056         146.201
0.573                   -1.34505        -160.843         -51.8165        -116.687         -51.8164        -116.687       -0.0144421         146.128
0.574                   -1.38096        -161.429         -51.6929        -118.473         -51.6928        -118.472       -0.0145806         146.056
0.575                   -1.41734        -162.015         -51.5706        -120.262         -51.5705        -120.262        -0.014721         145.983
0.576                   -1.45416          -162.6         -51.4495        -122.056         -51.4495        -122.056       -0.0148634          145.91
0.577                    -1.4914        -163.185         -51.3298        -123.853         -51.3297        -123.852       -0.0150078         145.836
0.578                   -1.52904         -163.77         -51.2113        -125.652         -51.2113        -125.652       -0.0151542         145.763
0.579                   -1.56705        -164.354         -51.0942        -127.454         -51.0941        -127.454       -0.0153027         145.689
0.58                    -1.60541        -164.938         -50.9784        -129.258         -50.9783        -129.258       -0.0154531         145.616
0.581                    -1.6441        -165.521         -50.8639        -131.064         -50.8638        -131.064       -0.0156057         145.542
0.582                   -1.68309        -166.105         -50.7507        -132.871         -50.7507         -132.87       -0.0157603         145.468
0.583                   -1.72237        -166.688         -50.6389        -134.679         -50.6388        -134.678        -0.015917         145.393
0.584                   -1.76192        -167.271         -50.5283        -136.487         -50.5282        -136.486       -0.0160758         145.319
0.585                   -1.80171        -167.855          -50.419        -138.295         -50.4189        -138.295       -0.0162367         145.245
0.586                   -1.84173        -168.439          -50.311        -140.103         -50.3109        -140.102       -0.0163997          145.17
0.587                   -1.88197        -169.023         -50.2041         -141.91          -50.204        -141.909       -0.0165648         145.095
0.588                   -1.92239        -169.607         -50.0985        -143.716         -50.0984        -143.715        -0.016732          145.02
0.589                     -1.963        -170.193         -49.9941        -145.521          -49.994         -145.52       -0.0169014         144.945
0.59                    -2.00378        -170.779         -49.8908        -147.323         -49.8907        -147.323       -0.0170729          144.87
0.591                   -2.04471        -171.366         -49.7886        -149.124         -49.7885        -149.124       -0.0172465         144.794
0.592                    -2.0858        -171.955         -49.6875        -150.923         -49.6873        -150.922       -0.0174224         144.718
0.593                   -2.12704        -172.545         -49.5874        -152.719         -49.5872        -152.718       -0.0176003         144.643
0.594                   -2.16841        -173.137         -49.4882        -154.512         -49.4881        -154.511       -0.0177805         144.567
0.595                   -2.20993         -173.73           -49.39        -156.302         -49.3899        -156.301       -0.0179628          144.49
0.596                   -2.25159        -174.326         -49.2927        -158.089         -49.2926        -158.088       -0.0181474         144.414
0.597                   -2.29339        -174.924         -49.1962        -159.872         -49.1961        -159.871       -0.0183342         144.338
0.598                   -2.33534        -175.525         -49.1005        -161.652         -49.1004        -161.651       -0.0185232         144.261
0.599                   -2.37745        -176.129         -49.0056        -163.428         -49.0054        -163.428       -0.0187144         144.184
0.6                     -2.41974        -176.735         -48.9113        -165.201         -48.9111          -165.2       -0.0189079         144.107
0.601                    -2.4622        -177.345         -48.8177         -166.97         -48.8175        -166.969       -0.0191038         144.029
0.602                   -2.50487        -177.959         -48.7246        -168.735         -48.7245        -168.734       -0.0193019         143.952
0.603                   -2.54775        -178.576         -48.6321        -170.496         -48.6319        -170.496       -0.0195024         143.874
0.604                   -2.59087        -179.197         -48.5401        -172.254         -48.5399        -172.253       -0.0197053         143.796
0.605                   -2.63426        -179.823         -48.4485        -174.007         -48.4484        -174.007       -0.0199106         143.718
0.606                   -2.67793         179.547         -48.3574        -175.757         -48.3572        -175.757       -0.0201183          143.64
0.607                   -2.72191         178.913         -48.2666        -177.503         -48.2664        -177.503       -0.0203285         143.561
0.608                   -2.76624         178.273         -48.1761        -179.246         -48.1759        -179.246       -0.0205413         143.483
0.609                   -2.81095         177.629         -48.0859         179.015         -48.0857         179.015       -0.0207567         143.404
0.61                    -2.85606         176.979         -47.9959         177.279         -47.9957         177.279       -0.0209747         143.325
0.611                   -2.90163         176.324         -47.9061         175.546         -47.9059         175.546       -0.0211954         143.245
0.612                   -2.94768         175.664         -47.8165         173.816         -47.8163         173.816       -0.0214188         143.166
0.613                   -2.99426         174.997          -47.727          172.09         -47.7269          172.09       -0.0216451         143.086
0.614                    -3.0414         174.325         -47.6377         170.365         -47.6375         170.365       -0.0218743         143.006
0.615                   -3.08916         173.646         -47.5484         168.644         -47.5482         168.644       -0.0221064         142.926
0.616                   -3.13757         172.962         -47.4592         166.924          -47.459         166.924       -0.0223415         142.845
0.617                   -3.18669         172.271           -47.37         165.207         -47.3699         165.207       -0.0225798         142.765
0.618                   -3.23657         171.573         -47.2809         163.492         -47.2807         163.492       -0.0228212         142.684
0.619                   -3.28725         170.869         -47.1917         161.778         -47.1916         161.778       -0.0230659         142.602
0.62                    -3.33879         170.158         -47.1026         160.066         -47.1025         160.066        -0.023314         142.521
0.621                   -3.39124         169.441         -47.0134         158.355         -47.0133         158.355       -0.0235655         142.439
0.622                   -3.44465         168.716         -46.9243         156.645         -46.9242         156.645       -0.0238206         142.357
0.623                   -3.49909         167.985         -46.8351         154.935          -46.835         154.935       -0.0240793         142.275
0.624                   -3.55461         167.247         -46.7459         153.227         -46.7458         153.227       -0.0243418         142.193
0.625                   -3.61127         166.502         -46.6567         151.518         -46.6566         151.518       -0.0246081          142.11
0.626                   -3.66913          165.75         -46.5674          149.81         -46.5673          149.81       -0.0248783         142.027
0.627                   -3.72825         164.991         -46.4782         148.102         -46.4781         148.102       -0.0251526         141.944
0.628                    -3.7887         164.225         -46.3889         146.394         -46.3889         146.393        -0.025431          141.86
0.629                   -3.85054         163.452         -46.2997         144.685         -46.2996         144.685       -0.0257138         141.777
0.63                    -3.91384         162.673         -46.2105         142.975         -46.2104         142.975       -0.0260009         141.693
0.631                   -3.97866         161.886         -46.1214         141.265         -46.1213         141.265       -0.0262925         141.608
0.632                   -4.04507         161.093         -46.0323         139.554         -46.0322         139.554       -0.0265887         141.524
0.633                   -4.11314         160.292         -45.9433         137.841         -45.9432         137.841       -0.0268896         141.439
0.634                   -4.18294         159.486         -45.8544         136.128         -45.8543         136.128       -0.0271954         141.354
0.635                   -4.25454         158.673         -45.7656         134.413         -45.7655         134.413       -0.0275062         141.268
0.636                   -4.32802         157.853         -45.6769         132.696         -45.6769         132.696        -0.027822         141.182
0.637                   -4.40345         157.027         -45.5885         130.978         -45.5884         130.979       -0.0281431         141.096
0.638                    -4.4809         156.196         -45.5002         129.259         -45.5002         129.259       -0.0284695          141.01
0.639                   -4.56045         155.358         -45.4122         127.538         -45.4122         127.538       -0.0288014         140.923
0.64                    -4.64218         154.515         -45.3244         125.815         -45.3244         125.815       -0.0291388         140.836
0.641                   -4.72616         153.667          -45.237          124.09         -45.2369          124.09        -0.029482         140.749
0.642                   -4.81247         152.813         -45.1498         122.363         -45.1497         122.363       -0.0298311         140.661
0.643                    -4.9012         151.955          -45.063         120.635         -45.0629         120.635       -0.0301861         140.573
0.644                   -4.99242         151.092         -44.9765         118.904         -44.9765         118.904       -0.0305472         140.485
0.645                   -5.08622         150.225         -44.8905         117.172         -44.8904         117.172       -0.0309146         140.396
0.646                   -5.18268         149.354         -44.8049         115.438         -44.8048         115.439       -0.0312884         140.307
0.647                   -5.28187         148.479         -44.7197         113.703         -44.7197         113.703       -0.0316687         140.218
0.648                   -5.38389         147.602         -44.6351         111.966          -44.635         111.966       -0.0320557         140.128
0.649                   -5.48882         146.722          -44.551         110.227         -44.5509         110.227       -0.0324495         140.038
0.65                    -5.59675         145.839         -44.4674         108.487         -44.4673         108.487       -0.0328503         139.948
0.651                   -5.70775         144.955         -44.3844         106.746         -44.3843         106.746       -0.0332581         139.857
0.652                   -5.82192          144.07          -44.302         105.003         -44.3019         105.003       -0.0336732         139.766
0.653                   -5.93934         143.184         -44.2202          103.26         -44.2201          103.26       -0.0340958         139.675
0.654                   -6.06011         142.299          -44.139         101.515         -44.1389         101.516       -0.0345258         139.583
0.655                   -6.18429         141.414         -44.0585         99.7702         -44.0584         99.7705       -0.0349636          139.49
0.656                   -6.31199          140.53         -43.9787         98.0246         -43.9786         98.0249       -0.0354093         139.398
0.657                   -6.44329         139.648         -43.8996         96.2787         -43.8995         96.2789        -0.035863         139.305
0.658                   -6.57828         138.769         -43.8212         94.5327         -43.8211         94.5329       -0.0363249         139.211
0.659                   -6.71703         137.894         -43.7435         92.7867         -43.7434         92.7869       -0.0367952         139.118
0.66                    -6.85965         137.023         -43.6666         91.0411         -43.6665         91.0412       -0.0372741         139.023
0.661                    -7.0062         136.157         -43.5904         89.2959         -43.5903         89.2961       -0.0377616         138.929
0.662                   -7.15678         135.298          -43.515         87.5516         -43.5149         87.5517       -0.0382581         138.834
0.663                   -7.31146         134.446         -43.4403         85.8082         -43.4402         85.8083       -0.0387636         138.738
0.664                   -7.47034         133.602         -43.3663         84.0661         -43.3663         84.0662       -0.0392784         138.642
0.665                   -7.63347         132.768         -43.2932         82.3254         -43.2931         82.3255       -0.0398027         138.546
0.666                   -7.80095         131.945         -43.2207         80.5864         -43.2207         80.5865       -0.0403366         138.449
0.667                   -7.97285         131.133         -43.1491         78.8494          -43.149         78.8495       -0.0408803         138.352
0.668                   -8.14923         130.334         -43.0781         77.1146         -43.0781         77.1147       -0.0414341         138.254
0.669                   -8.33017          129.55          -43.008         75.3823         -43.0079         75.3823       -0.0419982         138.156
0.67                    -8.51572         128.783         -42.9385         73.6526         -42.9384         73.6526       -0.0425728         138.057
0.671                   -8.70594         128.032         -42.8697         71.9258         -42.8696         71.9258       -0.0431581         137.958
0.672                   -8.90089         127.301         -42.8016         70.2022         -42.8016         70.2022       -0.0437543         137.858
0.673                   -9.10061         126.591         -42.7342          68.482         -42.7341         68.4819       -0.0443616         137.758
0.674                   -9.30513         125.904         -42.6675         66.7653         -42.6674         66.7652       -0.0449804         137.657
0.675                   -9.51449         125.242         -42.6013         65.0524         -42.6013         65.0523       -0.0456108         137.556
0.676                   -9.72871         124.607         -42.5358         63.3436         -42.5357         63.3435        -0.046253         137.454
0.677                   -9.94778             124         -42.4708         61.6389         -42.4708         61.6388       -0.0469074         137.352
0.678                   -10.1717         123.425         -42.4064         59.9387         -42.4064         59.9386       -0.0475743         137.249
0.679                   -10.4005         122.884         -42.3426          58.243         -42.3425         58.2429       -0.0482538         137.146
0.68                     -10.634         122.379         -42.2792         56.5521         -42.2791         56.5519       -0.0489462         137.042
0.681                   -10.8722         121.913         -42.2162         54.8661         -42.2162         54.8659       -0.0496519         136.938
0.682                   -11.1151         121.489         -42.1537         53.1851         -42.1537         53.1849       -0.0503711         136.832
0.683                   -11.3625          121.11         -42.0916         51.5093         -42.0916         51.5092       -0.0511042         136.727
0.684                   -11.6143         120.779         -42.0298         49.8389         -42.0298         49.8387       -0.0518513         136.621
0.685                   -11.8702         120.499         -41.9684         48.1739         -41.9684         48.1737        -0.052613         136.514
0.686                   -12.1301         120.274         -41.9072         46.5144         -41.9072         46.5143       -0.0533894         136.406
0.687                   -12.3937         120.108         -41.8463         44.8606         -41.8463         44.8605        -0.054181         136.298
0.688                   -12.6606         120.003         -41.7856         43.2125         -41.7856         43.2124        -0.054988          136.19
0.689                   -12.9304         119.964         -41.7251         41.5702          -41.725         41.5701       -0.0558109          136.08
0.69                    -13.2028         119.995         -41.6646         39.9338         -41.6646         39.9336       -0.0566499          135.97
0.691                    -13.477         120.099         -41.6043         38.3032         -41.6043         38.3031       -0.0575056          135.86
0.692                   -13.7526         120.281          -41.544         36.6786          -41.544         36.6784       -0.0583782         135.748
0.693                   -14.0288         120.544         -41.4837         35.0599         -41.4837         35.0598       -0.0592682         135.636
0.694                   -14.3047         120.891         -41.4234         33.4472         -41.4234         33.4471       -0.0601759         135.523
0.695                   -14.5795         121.327          -41.363         31.8405          -41.363         31.8404       -0.0611019          135.41
0.696                   -14.8521         121.854         -41.3025         30.2397         -41.3026         30.2397       -0.0620465         135.296
0.697                   -15.1214         122.475         -41.2419          28.645         -41.2419         28.6449       -0.0630102         135.181