! TOUCHSTONE file generated by CST MICROWAVE STUDIO
! Date and time: Mon Oct 26 12:29:11 2020
! Project name: Scenario_1_Circular_Tissue_out_of_Line.cst
! Parameters = {dy1=260.935; L_HA=400; MT=2.54; Rad_Dielectric=30; Rad_Lower=7.3; Rad_Upper=30; a_HA=580; a_WG=246; b_HA=500; b_WG=121; c_HA=0; c_WG=187; d_feed=85; dx1=866; h_feed=15; h_lower=18; h_upper=40}
! Header version: 2018
! Port assignment regex: !\s*Touchstone port\s*([0-9]+)\s*=\s*(CST MWS port|CST DS port)\s*([0-9]+|Zmin|Zmax)\s*\(\"(.*)\"\)(\s*mode\s*([0-9]+))?.*
! Touchstone port assignment:
! Touchstone port 1 = CST MWS port 1 ("")
! Touchstone port 2 = CST MWS port 2 ("")
# GHz S DB R 50
0.5                    -0.148074        -122.383         -64.2925         86.0407         -64.2925         86.0407      -0.00744576         151.138
0.501                  -0.151089        -122.805         -64.1778         83.8214         -64.1763         83.8173      -0.00752292         151.073
0.502                  -0.154303        -123.228           -64.06         81.5946          -64.057         81.5868      -0.00760032         151.007
0.503                   -0.15772        -123.655         -63.9391         79.3607         -63.9347         79.3496      -0.00767796         150.942
0.504                  -0.161347        -124.084         -63.8152         77.1202         -63.8094         77.1062      -0.00775586         150.877
0.505                  -0.165187        -124.516         -63.6883         74.8736         -63.6813         74.8571      -0.00783403         150.811
0.506                  -0.169247         -124.95         -63.5586         72.6214         -63.5504         72.6026      -0.00791249         150.746
0.507                  -0.173531        -125.388         -63.4261         70.3638         -63.4167         70.3432      -0.00799123          150.68
0.508                  -0.178046        -125.828         -63.2909         68.1013         -63.2804         68.0791      -0.00807028         150.614
0.509                  -0.182797         -126.27         -63.1531         65.8341         -63.1415         65.8107      -0.00814965         150.548
0.51                   -0.187788        -126.716         -63.0127         63.5627         -63.0002         63.5382      -0.00822935         150.482
0.511                  -0.193027        -127.164           -62.87         61.2874         -62.8565         61.2621       -0.0083094         150.416
0.512                  -0.198518        -127.615         -62.7248         59.0082         -62.7105         58.9824      -0.00838981          150.35
0.513                  -0.204267        -128.069         -62.5775         56.7256         -62.5624         56.6994      -0.00847059         150.284
0.514                   -0.21028        -128.526          -62.428         54.4396         -62.4122         54.4132      -0.00855175         150.218
0.515                  -0.216563        -128.985         -62.2765         52.1505         -62.2601         52.1241      -0.00863332         150.152
0.516                  -0.223122        -129.447          -62.123         49.8584         -62.1061         49.8321      -0.00871531         150.085
0.517                  -0.229962        -129.912         -61.9678         47.5633         -61.9503         47.5373      -0.00879773         150.019
0.518                  -0.237091         -130.38         -61.8108         45.2655         -61.7929         45.2398       -0.0088806         149.952
0.519                  -0.244512         -130.85         -61.6523          42.965          -61.634         42.9397      -0.00896394         149.886
0.52                   -0.252234        -131.323         -61.4922         40.6618         -61.4737          40.637      -0.00904775         149.819
0.521                  -0.260262        -131.799         -61.3308         38.3559         -61.3121         38.3317      -0.00913207         149.752
0.522                  -0.268602        -132.278         -61.1682         36.0473         -61.1492         36.0238       -0.0092169         149.685
0.523                   -0.27726        -132.759         -61.0043         33.7361         -60.9853         33.7133      -0.00930227         149.618
0.524                  -0.286243        -133.244         -60.8395         31.4222         -60.8204         31.4001      -0.00938818         149.551
0.525                  -0.295557        -133.731         -60.6736         29.1056         -60.6546         29.0842      -0.00947467         149.484
0.526                  -0.305208        -134.221          -60.507         26.7862         -60.4881         26.7656      -0.00956174         149.417
0.527                  -0.315203        -134.713         -60.3397         24.4639         -60.3209          24.444      -0.00964943          149.35
0.528                  -0.325548        -135.208         -60.1717         22.1387         -60.1531         22.1196      -0.00973774         149.282
0.529                   -0.33625        -135.707         -60.0033         19.8105         -59.9849         19.7922      -0.00982669         149.215
0.53                   -0.347315        -136.207         -59.8344         17.4792         -59.8163         17.4616      -0.00991632         149.147
0.531                  -0.358749        -136.711         -59.6653         15.1448         -59.6475         15.1279       -0.0100066         149.079
0.532                  -0.370559        -137.217         -59.4959         12.8071         -59.4786         12.7909       -0.0100976         149.012
0.533                  -0.382752        -137.726         -59.3265         10.4661         -59.3096         10.4506       -0.0101894         148.944
0.534                  -0.395334        -138.238         -59.1571         8.12163         -59.1406         8.10681       -0.0102819         148.876
0.535                  -0.408311        -138.752         -58.9877         5.77367         -58.9718         5.75952       -0.0103752         148.808
0.536                  -0.421691         -139.27         -58.8186         3.42214         -58.8032         3.40863       -0.0104692         148.739
0.537                  -0.435479        -139.789         -58.6498         1.06696         -58.6349         1.05408       -0.0105641         148.671
0.538                  -0.449682        -140.312         -58.4813        -1.29193         -58.4671        -1.30419       -0.0106598         148.603
0.539                  -0.464307        -140.837         -58.3133        -3.65457         -58.2997        -3.66622       -0.0107564         148.534
0.54                    -0.47936        -141.365         -58.1459        -6.02101         -58.1329        -6.03206       -0.0108539         148.466
0.541                  -0.494848        -141.895         -57.9791        -8.39127         -57.9668        -8.40173       -0.0109523         148.397
0.542                  -0.510778        -142.428          -57.813        -10.7654         -57.8014        -10.7752       -0.0110516         148.328
0.543                  -0.527155        -142.964         -57.6477        -13.1433         -57.6369        -13.1526       -0.0111519         148.259
0.544                  -0.543986        -143.502         -57.4833        -15.5251         -57.4732        -15.5338       -0.0112531          148.19
0.545                  -0.561277        -144.043         -57.3199        -17.9107         -57.3105        -17.9188       -0.0113554         148.121
0.546                  -0.579036        -144.586         -57.1574        -20.3001         -57.1488        -20.3076       -0.0114587         148.052
0.547                  -0.597268        -145.132         -56.9961        -22.6932         -56.9881        -22.7001        -0.011563         147.982
0.548                  -0.615979         -145.68         -56.8358        -25.0899         -56.8287        -25.0962       -0.0116685         147.913
0.549                  -0.635176        -146.231         -56.6768        -27.4903         -56.6704        -27.4959        -0.011775         147.843
0.55                   -0.654865        -146.784         -56.5191        -29.8941         -56.5134         -29.899       -0.0118827         147.774
0.551                  -0.675052         -147.34         -56.3627        -32.3012         -56.3577        -32.3054       -0.0119916         147.704
0.552                  -0.695743        -147.898         -56.2076        -34.7116         -56.2034        -34.7151       -0.0121016         147.634
0.553                  -0.716944        -148.459         -56.0539         -37.125         -56.0505        -37.1278       -0.0122128         147.564
0.554                  -0.738662        -149.022         -55.9017        -39.5414          -55.899        -39.5435       -0.0123253         147.494
0.555                  -0.760901        -149.587          -55.751        -41.9606          -55.749        -41.9619        -0.012439         147.423
0.556                  -0.783667        -150.154         -55.6019        -44.3824         -55.6006        -44.3828        -0.012554         147.353
0.557                  -0.806968        -150.724         -55.4543        -46.8065         -55.4536        -46.8061       -0.0126704         147.282
0.558                  -0.830807        -151.296         -55.3082        -49.2329         -55.3083        -49.2316       -0.0127881         147.212
0.559                   -0.85519        -151.871         -55.1638        -51.6612         -55.1645        -51.6591       -0.0129071         147.141
0.56                   -0.880123        -152.447          -55.021        -54.0913         -55.0223        -54.0883       -0.0130276          147.07
0.561                  -0.905612        -153.026         -54.8799        -56.5229         -54.8818         -56.519       -0.0131495         146.999
0.562                   -0.93166        -153.607         -54.7404        -58.9559         -54.7429        -58.9511       -0.0132728         146.928
0.563                  -0.958274         -154.19         -54.6026        -61.3899         -54.6056        -61.3842       -0.0133976         146.857
0.564                  -0.985459        -154.775         -54.4665        -63.8248           -54.47        -63.8181       -0.0135238         146.785
0.565                   -1.01322        -155.363          -54.332        -66.2603          -54.336        -66.2527       -0.0136517         146.714
0.566                   -1.04156        -155.952         -54.1992        -68.6961         -54.2036        -68.6876        -0.013781         146.642
0.567                   -1.07048        -156.543         -54.0681        -71.1321         -54.0729        -71.1226        -0.013912          146.57
0.568                   -1.09999        -157.136         -53.9386         -73.568         -53.9438        -73.5576       -0.0140445         146.498
0.569                    -1.1301        -157.731         -53.8107        -76.0035         -53.8163        -75.9922       -0.0141787         146.426
0.57                     -1.1608        -158.329         -53.6845        -78.4384         -53.6904        -78.4262       -0.0143145         146.354
0.571                   -1.19211        -158.928         -53.5598        -80.8726          -53.566        -80.8595       -0.0144519         146.282
0.572                   -1.22402        -159.528         -53.4367        -83.3057         -53.4432        -83.2918       -0.0145911         146.209
0.573                   -1.25654        -160.131         -53.3152        -85.7376         -53.3219        -85.7229        -0.014732         146.137
0.574                   -1.28967        -160.735         -53.1952        -88.1681         -53.2021        -88.1527       -0.0148747         146.064
0.575                   -1.32342        -161.342         -53.0767        -90.5969         -53.0838        -90.5808       -0.0150191         145.991
0.576                   -1.35778         -161.95         -52.9596         -93.024         -52.9668        -93.0072       -0.0151653         145.918
0.577                   -1.39277        -162.559          -52.844        -95.4492         -52.8513        -95.4317       -0.0153134         145.845
0.578                   -1.42839         -163.17         -52.7297        -97.8722         -52.7371        -97.8542       -0.0154632         145.771
0.579                   -1.46463        -163.783         -52.6168        -100.293         -52.6242        -100.274       -0.0156149         145.698
0.58                     -1.5015        -164.398         -52.5052        -102.711         -52.5126        -102.692       -0.0157686         145.624
0.581                   -1.53901        -165.014         -52.3948        -105.127         -52.4022        -105.108       -0.0159241          145.55
0.582                   -1.57716        -165.632         -52.2857         -107.54          -52.293        -107.521       -0.0160815         145.477
0.583                   -1.61594        -166.251         -52.1777        -109.951         -52.1849        -109.931       -0.0162409         145.402
0.584                   -1.65536        -166.872         -52.0709        -112.359          -52.078        -112.339       -0.0164023         145.328
0.585                   -1.69542        -167.494         -51.9651        -114.763         -51.9721        -114.743       -0.0165656         145.254
0.586                   -1.73613        -168.117         -51.8604        -117.165         -51.8672        -117.145        -0.016731         145.179
0.587                   -1.77748        -168.743         -51.7567        -119.564         -51.7633        -119.545       -0.0168984         145.104
0.588                   -1.81947        -169.369         -51.6539         -121.96         -51.6603        -121.941       -0.0170679         145.029
0.589                   -1.86212        -169.997          -51.552        -124.354         -51.5583        -124.334       -0.0172394         144.954
0.59                    -1.90541        -170.626          -51.451        -126.744          -51.457        -126.725        -0.017413         144.879
0.591                   -1.94935        -171.257         -51.3509        -129.131         -51.3566        -129.112       -0.0175888         144.804
0.592                   -1.99395        -171.889         -51.2515        -131.515         -51.2569        -131.497       -0.0177667         144.728
0.593                   -2.03919        -172.522         -51.1528        -133.896         -51.1579        -133.879       -0.0179468         144.652
0.594                   -2.08509        -173.156         -51.0548        -136.275         -51.0596        -136.258       -0.0181291         144.576
0.595                   -2.13163        -173.792         -50.9575        -138.651          -50.962        -138.635       -0.0183135           144.5
0.596                   -2.17883        -174.429         -50.8608        -141.024         -50.8649        -141.008       -0.0185003         144.424
0.597                   -2.22668        -175.068         -50.7646        -143.394         -50.7685         -143.38       -0.0186893         144.348
0.598                   -2.27519        -175.707         -50.6691        -145.762         -50.6725        -145.749       -0.0188805         144.271
0.599                   -2.32434        -176.348          -50.574        -148.127         -50.5771        -148.115       -0.0190741         144.194
0.6                     -2.37415        -176.991         -50.4794         -150.49         -50.4822        -150.479       -0.0192701         144.117
0.601                   -2.42461        -177.634         -50.3853        -152.851         -50.3877        -152.841       -0.0194684          144.04
0.602                   -2.47572        -178.279         -50.2915         -155.21         -50.2936        -155.201       -0.0196691         143.962
0.603                   -2.52748        -178.925         -50.1982        -157.567         -50.1999        -157.559       -0.0198723         143.885
0.604                   -2.57989        -179.573         -50.1052        -159.921         -50.1065        -159.915       -0.0200779         143.807
0.605                   -2.63296         179.778         -50.0126        -162.274         -50.0136         -162.27        -0.020286         143.729
0.606                   -2.68667         179.128         -49.9203        -164.626         -49.9209        -164.623       -0.0204967         143.651
0.607                   -2.74104         178.476         -49.8284        -166.976         -49.8286        -166.974       -0.0207099         143.572
0.608                   -2.79606         177.823         -49.7367        -169.324         -49.7365        -169.324       -0.0209257         143.494
0.609                   -2.85172         177.168         -49.6453        -171.672         -49.6448        -171.673       -0.0211443         143.415
0.61                    -2.90804         176.512         -49.5541        -174.018         -49.5533        -174.021       -0.0213655         143.336
0.611                   -2.96501         175.854         -49.4632        -176.364         -49.4621        -176.368       -0.0215894         143.257
0.612                   -3.02263         175.195         -49.3726        -178.708         -49.3711        -178.715       -0.0218161         143.177
0.613                    -3.0809         174.533         -49.2821         178.948         -49.2804          178.94       -0.0220457         143.097
0.614                   -3.13982          173.87          -49.192         176.604         -49.1899         176.595       -0.0222782         143.017
0.615                    -3.1994         173.205          -49.102         174.261         -49.0997          174.25       -0.0225136         142.937
0.616                   -3.25964         172.538         -49.0123         171.918         -49.0097         171.905        -0.022752         142.857
0.617                   -3.32053         171.869         -48.9228         169.576         -48.9199         169.561       -0.0229934         142.776
0.618                   -3.38209         171.198         -48.8336         167.233         -48.8304         167.217        -0.023238         142.695
0.619                   -3.44431         170.525         -48.7446          164.89         -48.7412         164.873       -0.0234857         142.614
0.62                    -3.50721         169.849         -48.6558         162.547         -48.6522         162.528       -0.0237368         142.533
0.621                   -3.57078          169.17         -48.5673         160.204         -48.5635         160.184       -0.0239911         142.452
0.622                   -3.63503         168.489          -48.479         157.861         -48.4751         157.839       -0.0242488          142.37
0.623                   -3.69997         167.805         -48.3911         155.517          -48.387         155.493         -0.02451         142.288
0.624                   -3.76561         167.118         -48.3034         153.172         -48.2992         153.147       -0.0247747         142.205
0.625                   -3.83196         166.427          -48.216         150.827         -48.2117         150.801        -0.025043         142.123
0.626                   -3.89904         165.733          -48.129         148.481         -48.1245         148.454       -0.0253151          142.04
0.627                   -3.96685         165.035         -48.0423         146.135         -48.0377         146.106       -0.0255909         141.957
0.628                   -4.03541         164.333         -47.9559         143.788         -47.9513         143.758       -0.0258706         141.874
0.629                   -4.10475         163.627           -47.87          141.44         -47.8653         141.409       -0.0261543          141.79
0.63                    -4.17488         162.917         -47.7844         139.091         -47.7796          139.06       -0.0264421         141.706
0.631                   -4.24583         162.202         -47.6992         136.742         -47.6944         136.709        -0.026734         141.622
0.632                   -4.31764         161.481         -47.6145         134.392         -47.6097         134.358       -0.0270302         141.537
0.633                   -4.39033         160.755         -47.5302         132.041         -47.5255         132.007       -0.0273308         141.453
0.634                   -4.46394         160.023         -47.4464         129.689         -47.4417         129.655       -0.0276358         141.368
0.635                   -4.53852         159.285         -47.3632         127.337         -47.3585         127.302       -0.0279454         141.282
0.636                   -4.61412          158.54         -47.2804         124.984         -47.2758         124.949       -0.0282597         141.197
0.637                    -4.6908         157.788         -47.1982         122.631         -47.1936         122.595       -0.0285789         141.111
0.638                   -4.76863         157.028         -47.1166         120.277         -47.1121         120.241       -0.0289029         141.025
0.639                   -4.84768          156.26         -47.0355         117.923         -47.0311         117.887        -0.029232         140.938
0.64                    -4.92805         155.483         -46.9551         115.568         -46.9508         115.532       -0.0295663         140.851
0.641                   -5.00982         154.697         -46.8753         113.214         -46.8712         113.178       -0.0299059         140.764
0.642                   -5.09313         153.901         -46.7962         110.859         -46.7922         110.824       -0.0302509         140.677
0.643                   -5.17809         153.095         -46.7177         108.505         -46.7139          108.47       -0.0306015         140.589
0.644                   -5.26486         152.277           -46.64         106.151         -46.6363         106.116       -0.0309578         140.501
0.645                   -5.35362         151.447         -46.5629         103.798         -46.5594         103.764       -0.0313199         140.412
0.646                   -5.44455         150.605         -46.4866         101.445         -46.4833         101.411        -0.031688         140.323
0.647                   -5.53787          149.75         -46.4111         99.0928         -46.4079         99.0603       -0.0320622         140.234
0.648                   -5.63385         148.882         -46.3363         96.7418         -46.3333         96.7103       -0.0324427         140.145
0.649                   -5.73276         147.999         -46.2623         94.3921         -46.2594         94.3617       -0.0328296         140.055
0.65                    -5.83493         147.101          -46.189         92.0439         -46.1864         92.0146        -0.033223         139.965
0.651                   -5.94072         146.188         -46.1166         89.6974         -46.1141         89.6693       -0.0336232         139.874
0.652                   -6.05055          145.26          -46.045         87.3528         -46.0427         87.3261       -0.0340303         139.783
0.653                   -6.16487         144.317         -45.9741         85.0103          -45.972          84.985       -0.0344443         139.692
0.654                   -6.28419         143.358         -45.9041         82.6702         -45.9022         82.6465       -0.0348656           139.6
0.655                   -6.40908         142.386         -45.8349         80.3328         -45.8331         80.3107       -0.0352942         139.508
0.656                   -6.54016           141.4         -45.7665         77.9983         -45.7649         77.9779       -0.0357304         139.416
0.657                    -6.6781         140.403         -45.6989          75.667         -45.6975         75.6483       -0.0361742         139.323
0.658                   -6.82361         139.396         -45.6321          73.339         -45.6308         73.3222       -0.0366259          139.23
0.659                   -6.97745         138.384         -45.5661         71.0148          -45.565         70.9998       -0.0370857         139.136
0.66                    -7.14041          137.37         -45.5009         68.6944         -45.4999         68.6814       -0.0375536         139.042
0.661                   -7.31324          136.36         -45.4364         66.3783         -45.4356         66.3672         -0.03803         138.948
0.662                   -7.49669          135.36         -45.3727         64.0666          -45.372         64.0575        -0.038515         138.853
0.663                   -7.69141         134.379         -45.3097         61.7596         -45.3092         61.7525       -0.0390087         138.757
0.664                   -7.89794         133.427         -45.2475         59.4575          -45.247         59.4525       -0.0395114         138.662
0.665                    -8.1166         132.514         -45.1859         57.1606         -45.1856         57.1577       -0.0400233         138.565
0.666                   -8.34744         131.654          -45.125         54.8691         -45.1248         54.8683       -0.0405445         138.469
0.667                   -8.59018          130.86         -45.0647         52.5834         -45.0646         52.5845       -0.0410753         138.372
0.668                   -8.84409         130.147         -45.0051         50.3034          -45.005         50.3066       -0.0416159         138.274
0.669                   -9.10797          129.53          -44.946         48.0296          -44.946         48.0348       -0.0421664         138.176
0.67                    -9.38007         129.021         -44.8875         45.7621         -44.8875         45.7693       -0.0427271         138.078
0.671                   -9.65811         128.634         -44.8295         43.5011         -44.8295         43.5102       -0.0432982         137.979
0.672                   -9.93931         128.379         -44.7719         41.2467          -44.772         41.2577       -0.0438799         137.879
0.673                   -10.2205         128.259         -44.7148         38.9993         -44.7149         39.0121       -0.0444725         137.779
0.674                   -10.4982         128.277         -44.6581         36.7588         -44.6582         36.7733       -0.0450761         137.679
0.675                   -10.7689         128.428         -44.6017         34.5255         -44.6018         34.5417       -0.0456911         137.578
0.676                   -11.0294         128.703         -44.5457         32.2995         -44.5457         32.3173       -0.0463176         137.476
0.677                   -11.2767         129.087         -44.4899         30.0809         -44.4899         30.1002       -0.0469558         137.374
0.678                   -11.5084         129.562         -44.4343         27.8699         -44.4343         27.8906       -0.0476062         137.272
0.679                    -11.723         130.107          -44.379         25.6665         -44.3789         25.6886       -0.0482688         137.168
0.68                    -11.9196           130.7         -44.3237          23.471         -44.3236         23.4942        -0.048944         137.065
0.681                   -12.0982         131.319         -44.2685         21.2832         -44.2683         21.3076        -0.049632          136.96
0.682                   -12.2595         131.944         -44.2134         19.1034         -44.2131         19.1287       -0.0503331         136.856
0.683                   -12.4046         132.558         -44.1582         16.9316         -44.1579         16.9578       -0.0510476          136.75
0.684                   -12.5351         133.145          -44.103         14.7678         -44.1026         14.7947       -0.0517757         136.644
0.685                   -12.6529         133.696         -44.0476         12.6121         -44.0471         12.6396       -0.0525178         136.538
0.686                   -12.7599         134.201         -43.9921         10.4645         -43.9915         10.4925       -0.0532742          136.43
0.687                   -12.8581         134.657         -43.9364         8.32504         -43.9357         8.35332       -0.0540452         136.322
0.688                   -12.9492         135.061         -43.8804         6.19367         -43.8795         6.22214       -0.0548311         136.214
0.689                   -13.0349         135.412          -43.824          4.0704         -43.8231         4.09892       -0.0556322         136.105
0.69                    -13.1168         135.713         -43.7672         1.95519         -43.7662         1.98363       -0.0564489         135.995
0.691                   -13.1961         135.965           -43.71       -0.151987          -43.709       -0.123764       -0.0572815         135.885
0.692                    -13.274         136.172         -43.6523         -2.2512         -43.6512        -2.22333       -0.0581304         135.773
0.693                   -13.3512         136.337         -43.5941        -4.34252         -43.5928        -4.31514        -0.058996         135.662
0.694                   -13.4287         136.466         -43.5352        -6.42603         -43.5339        -6.39928       -0.0598786         135.549
0.695                    -13.507          136.56         -43.4757        -8.50184         -43.4743        -8.47584       -0.0607787         135.436
0.696                   -13.5865         136.626         -43.4154        -10.5701          -43.414        -10.5449       -0.0616967         135.322
0.697                   -13.6677         136.667         -43.3543        -12.6308         -43.3529        -12.6067       -0.0626329         135.207