! TOUCHSTONE file generated by CST MICROWAVE STUDIO
! Date and time: Fri Oct 30 08:05:19 2020
! Project name: Scenario_1_Circular_Tissue_out_of_Line.cst
! Parameters = {dy1=295.617; L_HA=400; MT=2.54; Rad_Dielectric=30; Rad_Lower=7.3; Rad_Upper=30; a_HA=580; a_WG=246; b_HA=500; b_WG=121; c_HA=0; c_WG=187; d_feed=85; dx1=520; h_feed=15; h_lower=18; h_upper=40}
! Header version: 2018
! Port assignment regex: !\s*Touchstone port\s*([0-9]+)\s*=\s*(CST MWS port|CST DS port)\s*([0-9]+|Zmin|Zmax)\s*\(\"(.*)\"\)(\s*mode\s*([0-9]+))?.*
! Touchstone port assignment:
! Touchstone port 1 = CST MWS port 1 ("")
! Touchstone port 2 = CST MWS port 2 ("")
# GHz S DB R 50
0.5                    -0.147428        -122.302         -63.3962        -88.5902         -63.4426        -88.5989      -0.00727092         151.144
0.501                  -0.154262        -122.719         -63.2146        -90.7395         -63.2377        -90.7673      -0.00734544         151.079
0.502                  -0.161225        -123.138         -63.0315        -92.8728         -63.0331        -92.9163       -0.0074206         151.014
0.503                  -0.168322         -123.56         -62.8471        -94.9908         -62.8291        -95.0472       -0.0074964         150.948
0.504                  -0.175556        -123.984         -62.6618        -97.0939         -62.6257         -97.161      -0.00757285         150.883
0.505                  -0.182932        -124.411         -62.4756        -99.1828         -62.4231        -99.2588      -0.00764995         150.817
0.506                  -0.190452        -124.841         -62.2888        -101.258         -62.2214        -101.342      -0.00772771         150.752
0.507                  -0.198122        -125.273         -62.1015         -103.32         -62.0207        -103.411      -0.00780613         150.686
0.508                  -0.205945        -125.708         -61.9138         -105.37         -61.8211        -105.467      -0.00788522         150.621
0.509                  -0.213926        -126.145         -61.7259        -107.408         -61.6227        -107.512      -0.00796498         150.555
0.51                   -0.222068        -126.585          -61.538        -109.436         -61.4256        -109.545      -0.00804542         150.489
0.511                  -0.230376        -127.028         -61.3501        -111.453         -61.2298        -111.569      -0.00812654         150.423
0.512                  -0.238854        -127.474         -61.1624         -113.46         -61.0354        -113.583      -0.00820835         150.357
0.513                  -0.247507        -127.922          -60.975        -115.459         -60.8425         -115.59      -0.00829085         150.291
0.514                  -0.256339        -128.373          -60.788        -117.449         -60.6512        -117.588      -0.00837405         150.225
0.515                  -0.265354        -128.827         -60.6016        -119.432         -60.4613        -119.581      -0.00845796         150.158
0.516                  -0.274558        -129.284         -60.4157        -121.408         -60.2731        -121.567      -0.00854258         150.092
0.517                  -0.283955        -129.743         -60.2305        -123.378         -60.0866        -123.548      -0.00862791         150.026
0.518                   -0.29355        -130.205         -60.0461        -125.342         -59.9017        -125.525      -0.00871397         149.959
0.519                  -0.303347         -130.67         -59.8625        -127.301         -59.7186        -127.498      -0.00880075         149.893
0.52                   -0.313352        -131.138         -59.6799        -129.256         -59.5371        -129.467      -0.00888827         149.826
0.521                  -0.323569        -131.608         -59.4983        -131.207         -59.3575        -131.434      -0.00897654         149.759
0.522                  -0.334003        -132.082         -59.3177        -133.156         -59.1796        -133.399      -0.00906555         149.692
0.523                  -0.344661        -132.558         -59.1382        -135.101         -59.0035        -135.362      -0.00915532         149.626
0.524                  -0.355546        -133.037         -58.9599        -137.045         -58.8292        -137.324      -0.00924586         149.559
0.525                  -0.366664        -133.519         -58.7829        -138.987         -58.6568        -139.285      -0.00933716         149.491
0.526                   -0.37802        -134.004         -58.6071        -140.927         -58.4861        -141.245      -0.00942924         149.424
0.527                   -0.38962        -134.491         -58.4326        -142.868         -58.3174        -143.206      -0.00952211         149.357
0.528                  -0.401469        -134.982         -58.2595        -144.808         -58.1505        -145.167      -0.00961577          149.29
0.529                  -0.413573        -135.475         -58.0879        -146.748         -57.9854        -147.129      -0.00971023         149.222
0.53                   -0.425938        -135.972         -57.9176        -148.689         -57.8223        -149.092      -0.00980551         149.155
0.531                  -0.438568        -136.471         -57.7489        -150.631          -57.661        -151.056       -0.0099016         149.087
0.532                   -0.45147        -136.973         -57.5817        -152.575         -57.5015        -153.022      -0.00999852         149.019
0.533                   -0.46465        -137.478         -57.4161         -154.52         -57.3439        -154.989       -0.0100963         148.952
0.534                  -0.478114        -137.987         -57.2521        -156.467         -57.1883        -156.959       -0.0101949         148.884
0.535                  -0.491867        -138.498         -57.0897        -158.417         -57.0344        -158.931       -0.0102943         148.816
0.536                  -0.505915        -139.012         -56.9289        -160.369         -56.8825        -160.905       -0.0103946         148.748
0.537                  -0.520266        -139.529         -56.7698        -162.323         -56.7324        -162.881       -0.0104958         148.679
0.538                  -0.534924        -140.049         -56.6124        -164.281         -56.5841         -164.86       -0.0105979         148.611
0.539                  -0.549896        -140.572         -56.4568        -166.242         -56.4377        -166.842       -0.0107008         148.543
0.54                   -0.565189        -141.098         -56.3029        -168.207         -56.2931        -168.826       -0.0108047         148.474
0.541                  -0.580808        -141.626         -56.1508        -170.174         -56.1504        -170.814       -0.0109095         148.406
0.542                  -0.596761        -142.158         -56.0004        -172.146         -56.0095        -172.804       -0.0110152         148.337
0.543                  -0.613054        -142.693         -55.8519        -174.121         -55.8704        -174.797       -0.0111218         148.268
0.544                  -0.629693        -143.231         -55.7052          -176.1          -55.733        -176.793       -0.0112294         148.199
0.545                  -0.646685        -143.772         -55.5603        -178.083         -55.5975        -178.792       -0.0113379          148.13
0.546                  -0.664038        -144.316         -55.4172          179.93         -55.4637         179.206       -0.0114474         148.061
0.547                  -0.681756        -144.863          -55.276         177.939         -55.3317         177.201       -0.0115579         147.992
0.548                  -0.699849        -145.413         -55.1366         175.944         -55.2013         175.193       -0.0116694         147.923
0.549                  -0.718321        -145.966         -54.9991         173.945         -55.0727         173.183       -0.0117819         147.853
0.55                   -0.737182        -146.522         -54.8635         171.943         -54.9458         171.169       -0.0118954         147.784
0.551                  -0.756436        -147.081         -54.7297         169.936         -54.8206         169.154       -0.0120099         147.714
0.552                  -0.776092        -147.642         -54.5978         167.925         -54.6969         167.135       -0.0121255         147.645
0.553                  -0.796157        -148.207         -54.4677         165.911         -54.5749         165.114       -0.0122421         147.575
0.554                  -0.816638        -148.775         -54.3395         163.893         -54.4545         163.091       -0.0123598         147.505
0.555                  -0.837543        -149.346         -54.2132         161.871         -54.3357         161.065       -0.0124786         147.435
0.556                  -0.858878         -149.92         -54.0887         159.846         -54.2184         159.037       -0.0125985         147.364
0.557                  -0.880651        -150.497          -53.966         157.818         -54.1027         157.007       -0.0127195         147.294
0.558                  -0.902869        -151.077         -53.8452         155.786         -53.9884         154.975       -0.0128416         147.224
0.559                  -0.925541         -151.66         -53.7262         153.751         -53.8755         152.942       -0.0129649         147.153
0.56                   -0.948673        -152.245         -53.6089         151.713         -53.7641         150.906       -0.0130893         147.082
0.561                  -0.972274        -152.834         -53.4935         149.672         -53.6541         148.869       -0.0132149         147.012
0.562                   -0.99635        -153.426         -53.3798         147.629         -53.5455         146.831       -0.0133417         146.941
0.563                   -1.02091        -154.021         -53.2678         145.583         -53.4382         144.791       -0.0134697          146.87
0.564                   -1.04596        -154.618         -53.1575         143.535         -53.3322          142.75        -0.013599         146.799
0.565                   -1.07151        -155.219         -53.0489         141.485         -53.2274         140.709       -0.0137295         146.727
0.566                   -1.09757        -155.822          -52.942         139.433         -53.1239         138.666       -0.0138612         146.656
0.567                   -1.12414        -156.429         -52.8367         137.379         -53.0216         136.623       -0.0139943         146.584
0.568                   -1.15124        -157.038          -52.733         135.323         -52.9205         134.579       -0.0141286         146.513
0.569                   -1.17887         -157.65         -52.6309         133.267         -52.8205         132.534       -0.0142642         146.441
0.57                    -1.20703        -158.265         -52.5303         131.208         -52.7216          130.49       -0.0144012         146.369
0.571                   -1.23575        -158.883         -52.4312         129.149         -52.6237         128.445       -0.0145396         146.297
0.572                   -1.26501        -159.503         -52.3335          127.09         -52.5269           126.4       -0.0146793         146.225
0.573                   -1.29485        -160.127         -52.2373         125.029          -52.431         124.356       -0.0148204         146.152
0.574                   -1.32525        -160.753         -52.1425         122.969         -52.3361         122.311        -0.014963          146.08
0.575                   -1.35623        -161.382         -52.0491         120.907         -52.2422         120.267       -0.0151069         146.007
0.576                   -1.38781        -162.014         -51.9569         118.846         -52.1491         118.224       -0.0152524         145.934
0.577                   -1.41997        -162.649          -51.866         116.785         -52.0569         116.181       -0.0153993         145.861
0.578                   -1.45275        -163.286         -51.7763         114.725         -51.9654         114.139       -0.0155478         145.788
0.579                   -1.48614        -163.926         -51.6879         112.665         -51.8748         112.099       -0.0156978         145.715
0.58                    -1.52014        -164.569         -51.6005         110.605         -51.7849         110.059       -0.0158493         145.642
0.581                   -1.55478        -165.214         -51.5143         108.547         -51.6958          108.02       -0.0160024         145.568
0.582                   -1.59006        -165.862         -51.4291         106.489         -51.6073         105.982       -0.0161572         145.495
0.583                   -1.62599        -166.513          -51.345         104.433         -51.5194         103.946       -0.0163135         145.421
0.584                   -1.66257        -167.166         -51.2618         102.378         -51.4322         101.912       -0.0164716         145.347
0.585                   -1.69982        -167.822         -51.1795         100.324         -51.3456         99.8786       -0.0166313         145.273
0.586                   -1.73774         -168.48         -51.0981         98.2718         -51.2596         97.8473       -0.0167927         145.198
0.587                   -1.77634        -169.141         -51.0176         96.2215         -51.1741         95.8177       -0.0169559         145.124
0.588                   -1.81563        -169.805         -50.9378          94.173          -51.089           93.79       -0.0171209         145.049
0.589                   -1.85563        -170.471         -50.8588         92.1265         -51.0045         91.7643       -0.0172876         144.975
0.59                    -1.89633        -171.139         -50.7806         90.0821         -50.9204         89.7405       -0.0174562           144.9
0.591                   -1.93775         -171.81          -50.703         88.0399         -50.8368         87.7189       -0.0176267         144.825
0.592                    -1.9799        -172.483          -50.626         86.0001         -50.7536         85.6995        -0.017799         144.749
0.593                   -2.02278        -173.158         -50.5496         83.9627         -50.6707         83.6824       -0.0179733         144.674
0.594                   -2.06641        -173.836         -50.4738         81.9278         -50.5882         81.6675       -0.0181495         144.598
0.595                   -2.11079        -174.516         -50.3984         79.8955          -50.506         79.6551       -0.0183278         144.523
0.596                   -2.15594        -175.199         -50.3236         77.8659         -50.4242         77.6451        -0.018508         144.447
0.597                   -2.20185        -175.883         -50.2492         75.8392         -50.3427         75.6376       -0.0186903          144.37
0.598                   -2.24855         -176.57         -50.1752         73.8152         -50.2614         73.6327       -0.0188748         144.294
0.599                   -2.29604        -177.259         -50.1016         71.7943         -50.1804         71.6303       -0.0190613         144.218
0.6                     -2.34434         -177.95         -50.0283         69.7763         -50.0997         69.6307       -0.0192501         144.141
0.601                   -2.39344        -178.644         -49.9553         67.7614         -50.0192         67.6337        -0.019441         144.064
0.602                   -2.44336        -179.339         -49.8826         65.7496         -49.9389         65.6395       -0.0196342         143.987
0.603                   -2.49412         179.964         -49.8102          63.741         -49.8588          63.648       -0.0198298          143.91
0.604                   -2.54571         179.264         -49.7379         61.7356          -49.779         61.6594       -0.0200276         143.832
0.605                   -2.59816         178.563         -49.6659         59.7335         -49.6993         59.6736       -0.0202278         143.755
0.606                   -2.65146          177.86          -49.594         57.7347         -49.6197         57.6906       -0.0204305         143.677
0.607                   -2.70564         177.155         -49.5223         55.7392         -49.5404         55.7106       -0.0206356         143.599
0.608                   -2.76069         176.448         -49.4507         53.7471         -49.4612         53.7335       -0.0208432         143.521
0.609                   -2.81664         175.739         -49.3791         51.7585         -49.3822         51.7593       -0.0210534         143.442
0.61                    -2.87349         175.028         -49.3077         49.7733         -49.3033         49.7881       -0.0212662         143.364
0.611                   -2.93126         174.316         -49.2363         47.7915         -49.2245         47.8199       -0.0214816         143.285
0.612                   -2.98995         173.602          -49.165         45.8133         -49.1459         45.8546       -0.0216998         143.206
0.613                   -3.04957         172.887         -49.0936         43.8385         -49.0674         43.8924       -0.0219207         143.126
0.614                   -3.11015         172.169         -49.0223         41.8673         -48.9891         41.9332       -0.0221444         143.047
0.615                   -3.17168         171.451          -48.951         39.8996         -48.9109          39.977       -0.0223709         142.967
0.616                   -3.23418         170.731         -48.8796         37.9354         -48.8328         38.0239       -0.0226004         142.887
0.617                   -3.29767         170.009         -48.8083         35.9748         -48.7548         36.0738       -0.0228329         142.807
0.618                   -3.36215         169.286         -48.7369         34.0178         -48.6769         34.1267       -0.0230684         142.727
0.619                   -3.42764         168.561         -48.6654         32.0643         -48.5992         32.1827        -0.023307         142.646
0.62                    -3.49416         167.836         -48.5939         30.1144         -48.5216         30.2418       -0.0235487         142.565
0.621                    -3.5617         167.109         -48.5223         28.1681         -48.4441         28.3039       -0.0237937         142.484
0.622                    -3.6303          166.38         -48.4506         26.2253         -48.3668          26.369       -0.0240419         142.403
0.623                   -3.69996         165.651         -48.3789         24.2861         -48.2896         24.4372       -0.0242935         142.321
0.624                    -3.7707          164.92          -48.307         22.3504         -48.2125         22.5085       -0.0245484         142.239
0.625                   -3.84252         164.189         -48.2351         20.4183         -48.1355         20.5828       -0.0248069         142.157
0.626                   -3.91546         163.456         -48.1631         18.4898         -48.0587         18.6602       -0.0250689         142.075
0.627                   -3.98951         162.722          -48.091         16.5647         -47.9821         16.7406       -0.0253345         141.992
0.628                   -4.06471         161.988         -48.0189         14.6432         -47.9056          14.824       -0.0256038          141.91
0.629                   -4.14106         161.253         -47.9466         12.7252         -47.8292         12.9105       -0.0258768         141.827
0.63                    -4.21858         160.517         -47.8743         10.8108          -47.753              11       -0.0261537         141.743
0.631                   -4.29729          159.78         -47.8018         8.89976         -47.6769         9.09252       -0.0264345          141.66
0.632                   -4.37721         159.042         -47.7293         6.99223          -47.601         7.18807       -0.0267193         141.576
0.633                   -4.45835         158.304         -47.6567         5.08816         -47.5253         5.28663       -0.0270082         141.491
0.634                   -4.54074         157.566          -47.584         3.18753         -47.4498         3.38819       -0.0273013         141.407
0.635                    -4.6244         156.827         -47.5112         1.29033         -47.3744         1.49276       -0.0275986         141.322
0.636                   -4.70934         156.087         -47.4384       -0.603458         -47.2992       -0.399683       -0.0279003         141.237
0.637                   -4.79558         155.348         -47.3655        -2.49385         -47.2242        -2.28913       -0.0282064         141.152
0.638                   -4.88316         154.608         -47.2925        -4.38088         -47.1494         -4.1756        -0.028517         141.066
0.639                   -4.97208         153.868         -47.2195        -6.26454         -47.0748         -6.0591       -0.0288322          140.98
0.64                    -5.06238         153.128         -47.1464        -8.14486         -47.0004        -7.93962       -0.0291522         140.894
0.641                   -5.15408         152.388         -47.0733        -10.0219         -46.9262        -9.81718        -0.029477         140.808
0.642                    -5.2472         151.648         -47.0002        -11.8956         -46.8521        -11.6918       -0.0298067         140.721
0.643                   -5.34177         150.908          -46.927         -13.766         -46.7783        -13.5634       -0.0301415         140.634
0.644                   -5.43782         150.169         -46.8538        -15.6331         -46.7048        -15.4321       -0.0304813         140.546
0.645                   -5.53538          149.43         -46.7806        -17.4971         -46.6314        -17.2979       -0.0308265         140.459
0.646                   -5.63446         148.692         -46.7073        -19.3577         -46.5582        -19.1607        -0.031177         140.371
0.647                   -5.73511         147.955         -46.6341        -21.2152         -46.4853        -21.0206        -0.031533         140.282
0.648                   -5.83736         147.218         -46.5608        -23.0695         -46.4126        -22.8775       -0.0318946         140.193
0.649                   -5.94123         146.483         -46.4876        -24.9206         -46.3401        -24.7316       -0.0322619         140.104
0.65                    -6.04676         145.748         -46.4143        -26.7686         -46.2678        -26.5827       -0.0326351         140.015
0.651                   -6.15399         145.015         -46.3411        -28.6135         -46.1958        -28.4309       -0.0330143         139.925
0.652                   -6.26295         144.283         -46.2679        -30.4552          -46.124        -30.2762       -0.0333996         139.835
0.653                   -6.37367         143.553         -46.1948        -32.2938         -46.0524        -32.1186       -0.0337912         139.744
0.654                    -6.4862         142.824         -46.1217        -34.1294          -45.981         -33.958       -0.0341891         139.653
0.655                   -6.60058         142.098         -46.0486        -35.9619         -45.9099        -35.7946       -0.0345937         139.562
0.656                   -6.71684         141.373         -45.9755        -37.7914         -45.8389        -37.6283       -0.0350049         139.471
0.657                   -6.83504         140.651         -45.9026        -39.6179         -45.7682        -39.4591       -0.0354229         139.379
0.658                   -6.95521         139.932         -45.8296        -41.4413         -45.6977         -41.287        -0.035848         139.286
0.659                    -7.0774         139.215         -45.7568        -43.2618         -45.6275         -43.112       -0.0362802         139.193
0.66                    -7.20166         138.502          -45.684        -45.0793         -45.5574        -44.9342       -0.0367197           139.1
0.661                   -7.32803         137.792         -45.6112        -46.8939         -45.4875        -46.7535       -0.0371668         139.007
0.662                   -7.45657         137.086         -45.5385        -48.7055         -45.4178        -48.5699       -0.0376215         138.913
0.663                   -7.58734         136.384         -45.4659        -50.5143         -45.3483        -50.3835       -0.0380841         138.818
0.664                   -7.72037         135.686         -45.3934        -52.3201         -45.2791        -52.1942       -0.0385547         138.723
0.665                   -7.85574         134.993          -45.321         -54.123         -45.2099         -54.002       -0.0390336         138.628
0.666                   -7.99349         134.306         -45.2486        -55.9231          -45.141        -55.8071       -0.0395209         138.532
0.667                    -8.1337         133.623         -45.1763        -57.7204         -45.0722        -57.6093       -0.0400168         138.436
0.668                   -8.27641         132.947         -45.1041        -59.5148         -45.0036        -59.4086       -0.0405215          138.34
0.669                   -8.42169         132.278         -45.0319        -61.3065         -44.9351        -61.2052       -0.0410353         138.243
0.67                     -8.5696         131.615         -44.9599        -63.0953         -44.8668        -62.9989       -0.0415583         138.145
0.671                   -8.72022          130.96         -44.8879        -64.8814         -44.7986        -64.7898       -0.0420908         138.047
0.672                    -8.8736         130.313         -44.8159        -66.6647         -44.7305         -66.578       -0.0426331         137.949
0.673                   -9.02982         129.676         -44.7441        -68.4453         -44.6626        -68.3634       -0.0431852          137.85
0.674                   -9.18894         129.047         -44.6723        -70.2231         -44.5947         -70.146       -0.0437476          137.75
0.675                   -9.35105         128.429         -44.6005        -71.9983         -44.5269        -71.9259       -0.0443204          137.65
0.676                    -9.5162         127.822         -44.5288        -73.7708         -44.4592         -73.703       -0.0449039          137.55
0.677                   -9.68447         127.228         -44.4572        -75.5407         -44.3915        -75.4774       -0.0454984         137.449
0.678                   -9.85593         126.646         -44.3856        -77.3079         -44.3239        -77.2491       -0.0461041         137.348
0.679                   -10.0307         126.078         -44.3141        -79.0725         -44.2564        -79.0181       -0.0467214         137.246
0.68                    -10.2087         125.525         -44.2426        -80.8345         -44.1888        -80.7845       -0.0473504         137.143
0.681                   -10.3902         124.988         -44.1711        -82.5939         -44.1213        -82.5482       -0.0479916          137.04
0.682                   -10.5751         124.469         -44.0996        -84.3508         -44.0537        -84.3092       -0.0486451         136.936
0.683                   -10.7636         123.969         -44.0281        -86.1051         -43.9862        -86.0677       -0.0493114         136.832
0.684                   -10.9557         123.489         -43.9567         -87.857         -43.9185        -87.8236       -0.0499907         136.727
0.685                   -11.1514          123.03         -43.8852        -89.6064         -43.8509        -89.5768       -0.0506834         136.622
0.686                   -11.3508         122.596         -43.8137        -91.3533         -43.7832        -91.3276       -0.0513898         136.516
0.687                    -11.554         122.186         -43.7421        -93.0978         -43.7153        -93.0758       -0.0521103         136.409
0.688                    -11.761         121.804         -43.6706        -94.8399         -43.6474        -94.8216       -0.0528452         136.302
0.689                   -11.9717         121.452         -43.5989        -96.5796         -43.5794        -96.5648        -0.053595         136.194
0.69                    -12.1863         121.131         -43.5272         -98.317         -43.5112        -98.3057       -0.0543599         136.086
0.691                   -12.4047         120.844         -43.4555        -100.052         -43.4428        -100.044       -0.0551404         135.977
0.692                   -12.6268         120.594         -43.3836        -101.785         -43.3743         -101.78        -0.055937         135.867
0.693                   -12.8526         120.384         -43.3116        -103.515         -43.3056        -103.514         -0.05675         135.757
0.694                    -13.082         120.216         -43.2395        -105.244         -43.2367        -105.245       -0.0575798         135.645
0.695                   -13.3149         120.093         -43.1673         -106.97         -43.1676        -106.974        -0.058427         135.534
0.696                   -13.5512         120.019          -43.095        -108.694         -43.0982        -108.701       -0.0592919         135.421
0.697                   -13.7906         119.998         -43.0224        -110.416         -43.0285        -110.426       -0.0601751         135.308