! TOUCHSTONE file generated by CST MICROWAVE STUDIO
! Date and time: Mon Oct 26 12:10:34 2020
! Project name: Scenario_1_Circular_Tissue_out_of_Line_v2.cst
! Parameters = {dy1=346; L_HA=400; MT=2.54; Rad_Dielectric=30; Rad_Lower=7.3; Rad_Upper=30; a_HA=580; a_WG=246; b_HA=500; b_WG=121; c_HA=0; c_WG=187; d_feed=85; dx1=173; h_feed=15; h_lower=18; h_upper=40}
! Header version: 2018
! Port assignment regex: !\s*Touchstone port\s*([0-9]+)\s*=\s*(CST MWS port|CST DS port)\s*([0-9]+|Zmin|Zmax)\s*\(\"(.*)\"\)(\s*mode\s*([0-9]+))?.*
! Touchstone port assignment:
! Touchstone port 1 = CST MWS port 1 ("")
! Touchstone port 2 = CST MWS port 2 ("")
# GHz S DB R 50
0.5                    -0.157755        -122.434         -64.1901         66.7414         -64.1901         66.7414      -0.00723647         151.125
0.501                  -0.162504        -122.864         -64.0822         65.1104         -64.0821         65.1103      -0.00729766         151.059
0.502                  -0.167434        -123.296         -63.9726         63.4738         -63.9725         63.4735      -0.00735995         150.994
0.503                  -0.172546         -123.73         -63.8616         61.8316         -63.8614         61.8312      -0.00742335         150.929
0.504                  -0.177843        -124.166         -63.7489         60.1841         -63.7487         60.1836      -0.00748786         150.863
0.505                  -0.183329        -124.604         -63.6349         58.5313         -63.6346         58.5306      -0.00755346         150.797
0.506                  -0.189005        -125.045         -63.5194         56.8734         -63.5191         56.8726      -0.00762016         150.732
0.507                  -0.194876        -125.487         -63.4025         55.2105         -63.4021         55.2096      -0.00768796         150.666
0.508                  -0.200943        -125.932         -63.2842         53.5427         -63.2838         53.5417      -0.00775685           150.6
0.509                   -0.20721         -126.38         -63.1647         51.8701         -63.1643          51.869      -0.00782684         150.534
0.51                    -0.21368        -126.829          -63.044         50.1927         -63.0435         50.1916      -0.00789792         150.468
0.511                  -0.220356        -127.281         -62.9221         48.5108         -62.9216         48.5096      -0.00797009         150.402
0.512                  -0.227241        -127.735         -62.7991         46.8244         -62.7985          46.823      -0.00804336         150.336
0.513                  -0.234338        -128.191          -62.675         45.1335         -62.6744          45.132      -0.00811771          150.27
0.514                  -0.241651         -128.65         -62.5499         43.4382         -62.5492         43.4367      -0.00819316         150.203
0.515                  -0.249183        -129.111         -62.4238         41.7386         -62.4232          41.737       -0.0082697         150.137
0.516                  -0.256938        -129.574         -62.2969         40.0347         -62.2962         40.0331      -0.00834732         150.071
0.517                  -0.264918         -130.04         -62.1692         38.3266         -62.1685         38.3249      -0.00842604         150.004
0.518                  -0.273127        -130.507         -62.0407         36.6143           -62.04         36.6126      -0.00850585         149.937
0.519                  -0.281569        -130.978         -61.9116          34.898         -61.9108         34.8962      -0.00858674         149.871
0.52                   -0.290248         -131.45         -61.7818         33.1775         -61.7809         33.1757      -0.00866873         149.804
0.521                  -0.299167        -131.925         -61.6514          31.453         -61.6505         31.4511      -0.00875181         149.737
0.522                  -0.308329        -132.403         -61.5205         29.7245         -61.5197         29.7225      -0.00883598          149.67
0.523                   -0.31774        -132.882         -61.3893          27.992         -61.3884           27.99      -0.00892125         149.603
0.524                  -0.327402        -133.365         -61.2576         26.2555         -61.2567         26.2535      -0.00900761         149.536
0.525                  -0.337319        -133.849         -61.1257         24.5152         -61.1247         24.5131      -0.00909506         149.468
0.526                  -0.347497        -134.336         -60.9935         22.7709         -60.9926         22.7688      -0.00918362         149.401
0.527                  -0.357937        -134.826         -60.8612         21.0228         -60.8602         21.0207      -0.00927328         149.334
0.528                  -0.368646        -135.318         -60.7288         19.2709         -60.7278         19.2688      -0.00936404         149.266
0.529                  -0.379627        -135.812         -60.5964         17.5153         -60.5954          17.513       -0.0094559         149.199
0.53                   -0.390885        -136.309          -60.464         15.7558          -60.463         15.7536      -0.00954887         149.131
0.531                  -0.402423        -136.808         -60.3318         13.9927         -60.3308         13.9904      -0.00964295         149.063
0.532                  -0.414247         -137.31         -60.1997         12.2259         -60.1987         12.2236      -0.00973815         148.995
0.533                  -0.426361        -137.815         -60.0679         10.4556         -60.0669         10.4532      -0.00983446         148.927
0.534                   -0.43877        -138.322         -59.9364         8.68168         -59.9354         8.67931      -0.00993189         148.859
0.535                  -0.451478        -138.831         -59.8053         6.90432         -59.8042         6.90191       -0.0100305         148.791
0.536                   -0.46449        -139.343         -59.6746         5.12356         -59.6736         5.12113       -0.0101301         148.723
0.537                  -0.477812        -139.858         -59.5445         3.33948         -59.5434         3.33702        -0.010231         148.654
0.538                  -0.491448        -140.375         -59.4149         1.55217         -59.4139         1.54969       -0.0103329         148.586
0.539                  -0.505403        -140.895          -59.286       -0.238269          -59.285        -0.24077        -0.010436         148.517
0.54                   -0.519683        -141.417         -59.1578        -2.03174         -59.1568        -2.03426       -0.0105403         148.449
0.541                  -0.534292        -141.942         -59.0303        -3.82812         -59.0293        -3.83066       -0.0106457          148.38
0.542                  -0.549237         -142.47         -58.9037         -5.6273         -58.9027        -5.62986       -0.0107522         148.311
0.543                  -0.564523            -143         -58.7779        -7.42913          -58.777        -7.43171       -0.0108599         148.242
0.544                  -0.580155        -143.533         -58.6531        -9.23349         -58.6522        -9.23608       -0.0109688         148.173
0.545                   -0.59614        -144.069         -58.5293        -11.0402         -58.5284        -11.0428       -0.0110789         148.104
0.546                  -0.612482        -144.607         -58.4065        -12.8491         -58.4056        -12.8517       -0.0111901         148.035
0.547                  -0.629188        -145.148         -58.2849        -14.6601         -58.2839        -14.6627       -0.0113026         147.965
0.548                  -0.646265        -145.692         -58.1643        -16.4729         -58.1634        -16.4755       -0.0114162         147.896
0.549                  -0.663717        -146.238          -58.045        -18.2873         -58.0441          -18.29       -0.0115311         147.826
0.55                   -0.681552        -146.787         -57.9269        -20.1033          -57.926        -20.1059       -0.0116471         147.756
0.551                  -0.699776        -147.339           -57.81        -21.9204         -57.8092        -21.9231       -0.0117644         147.686
0.552                  -0.718395        -147.893         -57.6945        -23.7386         -57.6937        -23.7412       -0.0118829         147.617
0.553                  -0.737417        -148.451         -57.5803        -25.5576         -57.5795        -25.5602       -0.0120027         147.546
0.554                  -0.756847        -149.011         -57.4675        -27.3772         -57.4667        -27.3798       -0.0121237         147.476
0.555                  -0.776692        -149.573         -57.3562        -29.1971         -57.3554        -29.1997        -0.012246         147.406
0.556                  -0.796961        -150.139         -57.2462        -31.0171         -57.2455        -31.0197       -0.0123695         147.336
0.557                   -0.81766        -150.707         -57.1378        -32.8369          -57.137        -32.8395       -0.0124943         147.265
0.558                  -0.838795        -151.278         -57.0308        -34.6564         -57.0301        -34.6589       -0.0126204         147.194
0.559                  -0.860376        -151.852         -56.9253        -36.4751         -56.9247        -36.4776       -0.0127478         147.124
0.56                   -0.882409        -152.429         -56.8214        -38.2928         -56.8208        -38.2953       -0.0128766         147.053
0.561                  -0.904902        -153.008          -56.719        -40.1094         -56.7184        -40.1118       -0.0130066         146.982
0.562                  -0.927862        -153.591         -56.6182        -41.9245         -56.6176        -41.9269        -0.013138          146.91
0.563                  -0.951299        -154.176         -56.5189        -43.7378         -56.5183        -43.7401       -0.0132708         146.839
0.564                   -0.97522        -154.764         -56.4211        -45.5491         -56.4206        -45.5514       -0.0134049         146.768
0.565                  -0.999633        -155.355          -56.325         -47.358         -56.3245        -47.3603       -0.0135404         146.696
0.566                   -1.02455        -155.948         -56.2304        -49.1645         -56.2299        -49.1667       -0.0136773         146.624
0.567                   -1.04997        -156.545         -56.1373        -50.9681         -56.1369        -50.9702       -0.0138156         146.553
0.568                   -1.07591        -157.144         -56.0459        -52.7686         -56.0454        -52.7707       -0.0139553         146.481
0.569                   -1.10238        -157.746         -55.9559        -54.5658         -55.9555        -54.5678       -0.0140965         146.409
0.57                    -1.12939        -158.351         -55.8675        -56.3593         -55.8671        -56.3613       -0.0142391         146.336
0.571                   -1.15694        -158.959         -55.7806        -58.1491         -55.7803         -58.151       -0.0143832         146.264
0.572                   -1.18505         -159.57         -55.6952        -59.9348         -55.6949        -59.9366       -0.0145288         146.192
0.573                   -1.21372        -160.183         -55.6112        -61.7161          -55.611        -61.7179       -0.0146759         146.119
0.574                   -1.24297          -160.8         -55.5287         -63.493         -55.5285        -63.4946       -0.0148245         146.046
0.575                    -1.2728        -161.419         -55.4477        -65.2651         -55.4475        -65.2667       -0.0149747         145.973
0.576                   -1.30323        -162.041          -55.368        -67.0323         -55.3678        -67.0338       -0.0151264           145.9
0.577                   -1.33426        -162.666         -55.2897        -68.7943         -55.2895        -68.7957       -0.0152797         145.827
0.578                   -1.36591        -163.294         -55.2128        -70.5511         -55.2126        -70.5524       -0.0154346         145.753
0.579                   -1.39818        -163.925         -55.1371        -72.3023          -55.137        -72.3035       -0.0155912          145.68
0.58                    -1.43109        -164.558         -55.0627        -74.0479         -55.0626         -74.049       -0.0157494         145.606
0.581                   -1.46465        -165.195         -54.9896        -75.7877         -54.9895        -75.7887       -0.0159093         145.532
0.582                   -1.49888        -165.834         -54.9177        -77.5216         -54.9176        -77.5225       -0.0160708         145.458
0.583                   -1.53377        -166.476         -54.8469        -79.2494         -54.8468        -79.2502       -0.0162341         145.384
0.584                   -1.56934         -167.12         -54.7772         -80.971         -54.7772        -80.9718       -0.0163991          145.31
0.585                   -1.60562        -167.768         -54.7086        -82.6864         -54.7086         -82.687       -0.0165659         145.235
0.586                   -1.64259        -168.418         -54.6411        -84.3954         -54.6411        -84.3959       -0.0167345         145.161
0.587                   -1.68029        -169.072         -54.5746        -86.0979         -54.5746        -86.0984       -0.0169049         145.086
0.588                   -1.71872        -169.728          -54.509         -87.794          -54.509        -87.7943       -0.0170772         145.011
0.589                    -1.7579        -170.386         -54.4443        -89.4835         -54.4444        -89.4837       -0.0172513         144.936
0.59                    -1.79784        -171.048         -54.3805        -91.1663         -54.3806        -91.1665       -0.0174273         144.861
0.591                   -1.83854        -171.712         -54.3175        -92.8426         -54.3176        -92.8426       -0.0176053         144.785
0.592                   -1.88003        -172.378         -54.2553        -94.5122         -54.2554        -94.5121       -0.0177852          144.71
0.593                   -1.92232        -173.048         -54.1939        -96.1751          -54.194        -96.1749       -0.0179671         144.634
0.594                   -1.96542         -173.72         -54.1331        -97.8314         -54.1333        -97.8311        -0.018151         144.558
0.595                   -2.00934        -174.394          -54.073         -99.481         -54.0732        -99.4806        -0.018337         144.482
0.596                   -2.05411        -175.072         -54.0135        -101.124         -54.0137        -101.124       -0.0185251         144.405
0.597                   -2.09973        -175.752         -53.9546         -102.76         -53.9548         -102.76       -0.0187153         144.329
0.598                   -2.14622        -176.434         -53.8962         -104.39         -53.8964         -104.39       -0.0189077         144.252
0.599                   -2.19359        -177.119         -53.8382        -106.013         -53.8384        -106.013       -0.0191023         144.175
0.6                     -2.24187        -177.806         -53.7808         -107.63          -53.781        -107.629       -0.0192991         144.098
0.601                   -2.29105        -178.496         -53.7237        -109.241         -53.7239         -109.24       -0.0194981         144.021
0.602                   -2.34117        -179.188          -53.667        -110.845         -53.6672        -110.844       -0.0196995         143.943
0.603                   -2.39223        -179.882         -53.6105        -112.443         -53.6108        -112.442       -0.0199032         143.865
0.604                   -2.44426         179.421         -53.5544        -114.035         -53.5546        -114.033       -0.0201094         143.788
0.605                   -2.49726         178.722         -53.4985         -115.62         -53.4988        -115.619       -0.0203179         143.709
0.606                   -2.55126         178.021         -53.4429          -117.2         -53.4431        -117.199       -0.0205289         143.631
0.607                   -2.60626         177.318         -53.3874        -118.774         -53.3876        -118.773       -0.0207425         143.553
0.608                    -2.6623         176.613          -53.332        -120.342         -53.3322        -120.341       -0.0209586         143.474
0.609                   -2.71938         175.905         -53.2767        -121.905          -53.277        -121.903       -0.0211774         143.395
0.61                    -2.77752         175.196         -53.2215        -123.462         -53.2218         -123.46       -0.0213988         143.316
0.611                   -2.83673         174.485         -53.1663        -125.013         -53.1666        -125.012       -0.0216229         143.236
0.612                   -2.89705         173.772         -53.1112         -126.56         -53.1114        -126.558       -0.0218497         143.157
0.613                   -2.95847         173.057          -53.056        -128.101         -53.0562        -128.099       -0.0220794         143.077
0.614                   -3.02103         172.341         -53.0007        -129.637         -53.0009        -129.635        -0.022312         142.997
0.615                   -3.08474         171.622         -52.9453        -131.168         -52.9456        -131.166       -0.0225474         142.917
0.616                   -3.14961         170.903         -52.8899        -132.695         -52.8901        -132.693       -0.0227859         142.836
0.617                   -3.21567         170.182         -52.8343        -134.217         -52.8345        -134.215       -0.0230274         142.756
0.618                   -3.28294         169.459         -52.7785        -135.735         -52.7787        -135.733       -0.0232719         142.675
0.619                   -3.35143         168.736         -52.7225        -137.248         -52.7227        -137.246       -0.0235197         142.593
0.62                    -3.42116         168.011         -52.6663        -138.757         -52.6664        -138.755       -0.0237706         142.512
0.621                   -3.49214         167.285         -52.6098        -140.263           -52.61         -140.26       -0.0240248          142.43
0.622                   -3.56441         166.558         -52.5531        -141.764         -52.5532        -141.762       -0.0242824         142.348
0.623                   -3.63798         165.831          -52.496        -143.262         -52.4962        -143.259       -0.0245433         142.266
0.624                   -3.71286         165.102         -52.4387        -144.756         -52.4389        -144.753       -0.0248078         142.184
0.625                   -3.78908         164.374          -52.381        -146.247         -52.3812        -146.244       -0.0250758         142.101
0.626                   -3.86666         163.644          -52.323        -147.734         -52.3232        -147.732       -0.0253474         142.018
0.627                   -3.94561         162.914         -52.2646        -149.218         -52.2648        -149.216       -0.0256227         141.935
0.628                   -4.02596         162.184         -52.2058          -150.7          -52.206        -150.697       -0.0259018         141.851
0.629                   -4.10772         161.454         -52.1467        -152.179         -52.1468        -152.176       -0.0261847         141.768
0.63                    -4.19092         160.724         -52.0871        -153.655         -52.0872        -153.652       -0.0264715         141.684
0.631                   -4.27556         159.995          -52.027        -155.128         -52.0271        -155.126       -0.0267624         141.599
0.632                   -4.36168         159.265         -51.9665        -156.599         -51.9666        -156.597       -0.0270573         141.515
0.633                    -4.4493         158.537         -51.9056        -158.069         -51.9056        -158.066       -0.0273564          141.43
0.634                   -4.53842         157.809         -51.8442        -159.536         -51.8442        -159.533       -0.0276598         141.345
0.635                   -4.62907         157.081         -51.7822        -161.001         -51.7823        -160.998       -0.0279675         141.259
0.636                   -4.72128         156.355         -51.7198        -162.464         -51.7199        -162.462       -0.0282797         141.173
0.637                   -4.81505         155.631         -51.6569        -163.926         -51.6569        -163.923       -0.0285965         141.087
0.638                   -4.91042         154.907         -51.5935        -165.386         -51.5935        -165.384       -0.0289178         141.001
0.639                   -5.00739         154.185         -51.5295        -166.846         -51.5295        -166.843       -0.0292439         140.914
0.64                    -5.10598         153.466          -51.465        -168.303          -51.465        -168.301       -0.0295749         140.827
0.641                   -5.20622         152.748            -51.4         -169.76         -51.3999        -169.758       -0.0299108          140.74
0.642                   -5.30813         152.032         -51.3344        -171.217         -51.3343        -171.214       -0.0302517         140.652
0.643                   -5.41171          151.32         -51.2683        -172.672         -51.2682        -172.669       -0.0305978         140.564
0.644                   -5.51699          150.61         -51.2016        -174.127         -51.2015        -174.124       -0.0309492         140.476
0.645                   -5.62399         149.902         -51.1343        -175.581         -51.1342        -175.578        -0.031306         140.387
0.646                   -5.73273         149.199         -51.0665        -177.035         -51.0664        -177.033       -0.0316683         140.298
0.647                   -5.84321         148.499         -50.9981        -178.489          -50.998        -178.486       -0.0320363         140.209
0.648                   -5.95546         147.802         -50.9292        -179.943          -50.929         -179.94         -0.03241         140.119
0.649                   -6.06949          147.11         -50.8596         178.603         -50.8594         178.606       -0.0327896         140.029
0.65                    -6.18532         146.422         -50.7895         177.149         -50.7893         177.152       -0.0331753         139.939
0.651                   -6.30297         145.739         -50.7189         175.694         -50.7186         175.697       -0.0335671         139.848
0.652                   -6.42244         145.061         -50.6476         174.239         -50.6474         174.242       -0.0339653         139.757
0.653                   -6.54375         144.388         -50.5758         172.784         -50.5755         172.786       -0.0343698         139.666
0.654                   -6.66691         143.722         -50.5034         171.327         -50.5031          171.33        -0.034781         139.574
0.655                   -6.79194         143.061         -50.4305          169.87         -50.4302         169.872        -0.035199         139.481
0.656                   -6.91885         142.406          -50.357         168.412         -50.3567         168.414       -0.0356238         139.389
0.657                   -7.04764         141.758         -50.2829         166.952         -50.2826         166.955       -0.0360558         139.296
0.658                   -7.17834         141.118         -50.2083         165.492         -50.2079         165.494       -0.0364949         139.202
0.659                   -7.31093         140.485         -50.1331          164.03         -50.1328         164.032       -0.0369415         139.108
0.66                    -7.44544          139.86         -50.0574         162.567          -50.057         162.569       -0.0373957         139.014
0.661                   -7.58186         139.243         -49.9812         161.102         -49.9808         161.104       -0.0378576         138.919
0.662                   -7.72021         138.636         -49.9044         159.635          -49.904         159.637       -0.0383275         138.824
0.663                   -7.86048         138.037         -49.8271         158.167         -49.8267         158.169       -0.0388055         138.728
0.664                   -8.00268         137.448         -49.7493         156.696         -49.7489         156.698       -0.0392918         138.632
0.665                    -8.1468          136.87          -49.671         155.224         -49.6706         155.226       -0.0397867         138.536
0.666                   -8.29285         136.302         -49.5922         153.749         -49.5918         153.751       -0.0402903         138.439
0.667                   -8.44081         135.746         -49.5129         152.273         -49.5125         152.275       -0.0408028         138.342
0.668                   -8.59069         135.201         -49.4332         150.794         -49.4327         150.796       -0.0413245         138.244
0.669                   -8.74247         134.669          -49.353         149.313         -49.3525         149.315       -0.0418557         138.145
0.67                    -8.89613         134.149         -49.2724         147.829         -49.2719         147.831       -0.0423964         138.047
0.671                   -9.05168         133.643         -49.1913         146.343         -49.1908         146.344        -0.042947         137.947
0.672                   -9.20907         133.151         -49.1098         144.854         -49.1093         144.855       -0.0435077         137.847
0.673                   -9.36831         132.674         -49.0279         143.362         -49.0273         143.363       -0.0440788         137.747
0.674                   -9.52935         132.212         -48.9456         141.867          -48.945         141.869       -0.0446604         137.646
0.675                   -9.69218         131.766         -48.8629          140.37         -48.8624         140.371        -0.045253         137.545
0.676                   -9.85675         131.337         -48.7799         138.869         -48.7793         138.871       -0.0458567         137.443
0.677                    -10.023         130.925         -48.6965         137.366         -48.6959         137.367       -0.0464719          137.34
0.678                    -10.191         130.532         -48.6128         135.859         -48.6122         135.861       -0.0470988         137.237
0.679                   -10.3605         130.157         -48.5288          134.35         -48.5282         134.351       -0.0477377         137.134
0.68                    -10.5317         129.801         -48.4445         132.837         -48.4439         132.838       -0.0483889          137.03
0.681                   -10.7043         129.466           -48.36         131.321         -48.3593         131.322       -0.0490528         136.925
0.682                   -10.8783         129.152         -48.2751         129.801         -48.2745         129.802       -0.0497297          136.82
0.683                   -11.0538          128.86         -48.1901         128.278         -48.1894         128.279       -0.0504199         136.714
0.684                   -11.2305         128.591         -48.1048         126.752         -48.1041         126.753       -0.0511238         136.607
0.685                   -11.4083         128.345         -48.0193         125.222         -48.0187         125.223       -0.0518417           136.5
0.686                   -11.5873         128.123         -47.9337         123.689          -47.933          123.69       -0.0525739         136.392
0.687                   -11.7672         127.926         -47.8479         122.152         -47.8472         122.153        -0.053321         136.284
0.688                    -11.948         127.756          -47.762         120.612         -47.7613         120.613       -0.0540832         136.175
0.689                   -12.1294         127.612         -47.6759         119.068         -47.6752         119.069        -0.054861         136.065
0.69                    -12.3115         127.496         -47.5898         117.521         -47.5891         117.521       -0.0556548         135.955
0.691                    -12.494         127.408         -47.5036          115.97         -47.5028          115.97        -0.056465         135.843
0.692                   -12.6767         127.349         -47.4173         114.415         -47.4166         114.416        -0.057292         135.732
0.693                   -12.8595         127.321          -47.331         112.857         -47.3303         112.857       -0.0581364         135.619
0.694                   -13.0422         127.322         -47.2447         111.295          -47.244         111.296       -0.0589986         135.506
0.695                   -13.2245         127.356         -47.1585          109.73         -47.1577          109.73        -0.059879         135.392
0.696                   -13.4062         127.421         -47.0723         108.161         -47.0715         108.161       -0.0607782         135.277
0.697                   -13.5872         127.518         -46.9861         106.589         -46.9853         106.589       -0.0616968         135.162