! TOUCHSTONE file generated by CST MICROWAVE STUDIO
! Date and time: Wed Oct 28 19:21:09 2020
! Project name: Scenario_1_Circular_Tissue_out_of_Line.cst
! Parameters = {dy1=346; L_HA=400; MT=2.54; Rad_Dielectric=30; Rad_Lower=7.3; Rad_Upper=30; a_HA=580; a_WG=246; b_HA=500; b_WG=121; c_HA=0; c_WG=187; d_feed=85; dx1=693; h_feed=15; h_lower=18; h_upper=40}
! Header version: 2018
! Port assignment regex: !\s*Touchstone port\s*([0-9]+)\s*=\s*(CST MWS port|CST DS port)\s*([0-9]+|Zmin|Zmax)\s*\(\"(.*)\"\)(\s*mode\s*([0-9]+))?.*
! Touchstone port assignment:
! Touchstone port 1 = CST MWS port 1 ("")
! Touchstone port 2 = CST MWS port 2 ("")
# GHz S DB R 50
0.5                    -0.141443        -122.269         -64.7613         157.621         -64.7613         157.621      -0.00765683         151.144
0.501                  -0.145558        -122.709         -64.8728         156.513         -64.8724         156.513      -0.00771096         151.079
0.502                  -0.149824        -123.151         -64.9865         155.374         -64.9858         155.375       -0.0077661         151.013
0.503                  -0.154243        -123.595         -65.1025         154.203         -65.1014         154.203      -0.00782224         150.948
0.504                  -0.158818         -124.04         -65.2207         152.996         -65.2192         152.998       -0.0078794         150.882
0.505                  -0.163552        -124.488         -65.3412         151.754         -65.3393         151.755      -0.00793757         150.816
0.506                  -0.168447        -124.937         -65.4638         150.473         -65.4616         150.475      -0.00799676         150.751
0.507                  -0.173508        -125.389         -65.5887         149.151          -65.586         149.154      -0.00805697         150.685
0.508                  -0.178736        -125.842         -65.7156         147.787         -65.7125          147.79      -0.00811821         150.619
0.509                  -0.184136        -126.297         -65.8446         146.377         -65.8411         146.382      -0.00818047         150.553
0.51                    -0.18971        -126.755         -65.9756          144.92         -65.9716         144.925      -0.00824376         150.487
0.511                  -0.195462        -127.214         -66.1083         143.412         -66.1038         143.419      -0.00830809         150.421
0.512                  -0.201394        -127.675         -66.2427         141.852         -66.2378          141.86      -0.00837345         150.355
0.513                  -0.207512        -128.139         -66.3786         140.235         -66.3731         140.245      -0.00843985         150.288
0.514                  -0.213817        -128.605         -66.5157          138.56         -66.5098         138.571       -0.0085073         150.222
0.515                  -0.220314        -129.072         -66.6537         136.822         -66.6473         136.835       -0.0085758         150.156
0.516                  -0.227007        -129.542         -66.7924         135.019         -66.7855         135.034      -0.00864535         150.089
0.517                  -0.233898        -130.014         -66.9314         133.147         -66.9239         133.164      -0.00871595         150.023
0.518                  -0.240993        -130.488         -67.0701         131.202         -67.0622         131.221      -0.00878762         149.956
0.519                  -0.248295        -130.964         -67.2082         129.181         -67.1997         129.204      -0.00886036         149.889
0.52                   -0.255808        -131.443         -67.3449         127.082         -67.3359         127.107      -0.00893416         149.822
0.521                  -0.263536        -131.923         -67.4796         124.899         -67.4701         124.928      -0.00900905         149.755
0.522                  -0.271484        -132.406         -67.6115         122.631         -67.6015         122.664      -0.00908501         149.688
0.523                  -0.279655        -132.891         -67.7397         120.274         -67.7293         120.311      -0.00916206         149.621
0.524                  -0.288055        -133.378         -67.8632         117.826         -67.8524         117.867       -0.0092402         149.554
0.525                  -0.296687        -133.868          -67.981         115.285         -67.9698         115.331      -0.00931944         149.487
0.526                  -0.305557         -134.36         -68.0919         112.649         -68.0803           112.7      -0.00939979         149.419
0.527                  -0.314669        -134.854         -68.1946         109.918         -68.1826         109.974      -0.00948124         149.352
0.528                  -0.324027        -135.351         -68.2876         107.091         -68.2754         107.153      -0.00956381         149.285
0.529                  -0.333638        -135.849         -68.3696         104.172         -68.3572          104.24      -0.00964751         149.217
0.53                   -0.343505        -136.351         -68.4391         101.161         -68.4266         101.235      -0.00973233         149.149
0.531                  -0.353633        -136.854         -68.4945         98.0642         -68.4821         98.1448      -0.00981829         149.081
0.532                  -0.364029         -137.36         -68.5345         94.8863         -68.5221         94.9734      -0.00990539         149.014
0.533                  -0.374697        -137.869         -68.5576         91.6346         -68.5453         91.7284      -0.00999364         148.946
0.534                  -0.385643        -138.379         -68.5625          88.318         -68.5505         88.4182       -0.0100831         148.878
0.535                  -0.396872        -138.893          -68.548         84.9464         -68.5364          85.053       -0.0101736         148.809
0.536                   -0.40839        -139.408         -68.5134         81.5314         -68.5022          81.644       -0.0102654         148.741
0.537                  -0.420203        -139.927         -68.4578         78.0851         -68.4472         78.2035       -0.0103583         148.673
0.538                  -0.432316        -140.447         -68.3809         74.6208          -68.371         74.7444       -0.0104524         148.604
0.539                  -0.444736         -140.97         -68.2826         71.1517         -68.2734           71.28       -0.0105478         148.536
0.54                   -0.457468        -141.496          -68.163         67.6911         -68.1547         67.8235       -0.0106443         148.467
0.541                  -0.470519        -142.024         -68.0228         64.2519         -68.0153         64.3877       -0.0107421         148.398
0.542                  -0.483895        -142.555         -67.8626         60.8461          -67.856         60.9847        -0.010841         148.329
0.543                  -0.497602        -143.088         -67.6833         57.4845         -67.6777         57.6252       -0.0109412          148.26
0.544                  -0.511647        -143.624         -67.4863          54.177         -67.4816          54.319       -0.0110427         148.191
0.545                  -0.526038        -144.163         -67.2729         50.9315          -67.269         51.0743       -0.0111454         148.122
0.546                  -0.540779        -144.704         -67.0444         47.7548         -67.0413         47.8977       -0.0112494         148.053
0.547                  -0.555879        -145.247         -66.8023         44.6519         -66.8001         44.7943       -0.0113547         147.984
0.548                  -0.571344        -145.793         -66.5481         41.6263         -66.5467         41.7677       -0.0114612         147.914
0.549                  -0.587182        -146.342         -66.2834         38.6803         -66.2827         38.8204       -0.0115691         147.845
0.55                     -0.6034        -146.894         -66.0094          35.815         -66.0095         35.9532       -0.0116782         147.775
0.551                  -0.620005        -147.448         -65.7276         33.0302         -65.7283         33.1663       -0.0117887         147.705
0.552                  -0.637005        -148.005         -65.4392         30.3249         -65.4405         30.4586       -0.0119006         147.635
0.553                  -0.654407        -148.564         -65.1453         27.6974         -65.1471         27.8285       -0.0120137         147.565
0.554                  -0.672219        -149.127          -64.847         25.1454         -64.8493         25.2737       -0.0121283         147.495
0.555                   -0.69045        -149.691         -64.5453         22.6661          -64.548         22.7915       -0.0122442         147.425
0.556                  -0.709106        -150.259         -64.2409         20.2563          -64.244         20.3787       -0.0123615         147.354
0.557                  -0.728197        -150.829         -63.9347         17.9126         -63.9381          18.032       -0.0124802         147.284
0.558                   -0.74773        -151.402         -63.6272         15.6316          -63.631         15.7479       -0.0126003         147.213
0.559                  -0.767714        -151.978         -63.3191         13.4097         -63.3231         13.5228       -0.0127219         147.142
0.56                   -0.788158        -152.556         -63.0109         11.2432         -63.0151         11.3531       -0.0128449         147.071
0.561                   -0.80907        -153.137         -62.7029         9.12846         -62.7073         9.23534       -0.0129693             147
0.562                  -0.830459        -153.721         -62.3955         7.06208         -62.4001          7.1659       -0.0130953         146.929
0.563                  -0.852333        -154.308         -62.0892         5.04057         -62.0938         5.14137       -0.0132227         146.858
0.564                  -0.874703        -154.897          -61.784         3.06062         -61.7887         3.15843       -0.0133516         146.787
0.565                  -0.897576        -155.489         -61.4802         1.11901          -61.485         1.21389       -0.0134821         146.715
0.566                  -0.920963        -156.084         -61.1781       -0.787346         -61.1829       -0.695335       -0.0136141         146.644
0.567                  -0.944873        -156.681         -60.8777        -2.66138         -60.8825        -2.57219       -0.0137477         146.572
0.568                  -0.969315        -157.282         -60.5792        -4.50592          -60.584        -4.41949       -0.0138829           146.5
0.569                  -0.994299        -157.885         -60.2826        -6.32364         -60.2874        -6.23991       -0.0140196         146.428
0.57                    -1.01984         -158.49         -59.9881         -8.1171         -59.9929        -8.03601        -0.014158         146.356
0.571                   -1.04593        -159.099         -59.6958        -9.88872         -59.7005        -9.81023        -0.014298         146.284
0.572                    -1.0726         -159.71         -59.4056        -11.6408         -59.4102        -11.5649       -0.0144397         146.211
0.573                   -1.09985        -160.324         -59.1175        -13.3756         -59.1221        -13.3021        -0.014583         146.139
0.574                    -1.1277         -160.94         -58.8317        -15.0951         -58.8362        -15.0241       -0.0147281         146.066
0.575                   -1.15614        -161.559         -58.5482        -16.8014         -58.5526        -16.7327       -0.0148749         145.993
0.576                    -1.1852        -162.181         -58.2669        -18.4963         -58.2711          -18.43       -0.0150234          145.92
0.577                   -1.21489        -162.806         -57.9878        -20.1816         -57.9919        -20.1176       -0.0151736         145.847
0.578                   -1.24521        -163.433          -57.711         -21.859          -57.715        -21.7973       -0.0153257         145.774
0.579                   -1.27617        -164.063         -57.4364        -23.5303         -57.4403        -23.4707       -0.0154796           145.7
0.58                    -1.30779        -164.695          -57.164        -25.1968         -57.1678        -25.1395       -0.0156353         145.626
0.581                   -1.34008         -165.33          -56.894        -26.8602         -56.8976         -26.805       -0.0157929         145.553
0.582                   -1.37304        -165.968         -56.6261        -28.5218         -56.6296        -28.4687       -0.0159523         145.479
0.583                    -1.4067        -166.608         -56.3605         -30.183         -56.3638         -30.132       -0.0161137         145.405
0.584                   -1.44106        -167.251         -56.0971        -31.8451         -56.1003        -31.7962        -0.016277         145.331
0.585                   -1.47613        -167.896          -55.836        -33.5094          -55.839        -33.4625       -0.0164423         145.256
0.586                   -1.51192        -168.544         -55.5771         -35.177           -55.58        -35.1321       -0.0166096         145.182
0.587                   -1.54845        -169.195         -55.3204        -36.8491         -55.3232        -36.8062       -0.0167789         145.107
0.588                   -1.58573        -169.847          -55.066        -38.5268         -55.0686        -38.4859       -0.0169502         145.032
0.589                   -1.62377        -170.503         -54.8138        -40.2111         -54.8163        -40.1722       -0.0171236         144.957
0.59                    -1.66258         -171.16          -54.564        -41.9031         -54.5663        -41.8662       -0.0172992         144.882
0.591                   -1.70218         -171.82         -54.3164        -43.6037         -54.3186        -43.5687       -0.0174768         144.807
0.592                   -1.74257        -172.483         -54.0712        -45.3139         -54.0732        -45.2809       -0.0176567         144.731
0.593                   -1.78377        -173.148         -53.8283        -47.0345         -53.8301        -47.0034       -0.0178387         144.655
0.594                   -1.82579        -173.815         -53.5878        -48.7664         -53.5895        -48.7372        -0.018023         144.579
0.595                   -1.86865        -174.484         -53.3498        -50.5104         -53.3513        -50.4831       -0.0182096         144.503
0.596                   -1.91235        -175.155         -53.1142        -52.2672         -53.1155        -52.2419       -0.0183985         144.427
0.597                    -1.9569        -175.829         -52.8811        -54.0377         -52.8823        -54.0143       -0.0185897         144.351
0.598                   -2.00233        -176.505         -52.6506        -55.8224         -52.6517        -55.8009       -0.0187833         144.274
0.599                   -2.04864        -177.183         -52.4227         -57.622         -52.4237        -57.6024       -0.0189794         144.197
0.6                     -2.09585        -177.862         -52.1976        -59.4371         -52.1984        -59.4194       -0.0191779          144.12
0.601                   -2.14397        -178.544         -51.9752        -61.2682         -51.9759        -61.2524       -0.0193789         144.043
0.602                   -2.19301        -179.228         -51.7556        -63.1159         -51.7562         -63.102       -0.0195824         143.966
0.603                   -2.24299        -179.914          -51.539        -64.9805         -51.5394        -64.9685       -0.0197885         143.888
0.604                   -2.29391         179.398         -51.3254        -66.8626         -51.3257        -66.8524       -0.0199972         143.811
0.605                   -2.34579         178.709         -51.1149        -68.7623         -51.1151        -68.7541       -0.0202086         143.733
0.606                   -2.39865         178.018         -50.9075        -70.6801         -50.9076        -70.6737       -0.0204227         143.654
0.607                    -2.4525         177.325         -50.7035         -72.616         -50.7035        -72.6115       -0.0206395         143.576
0.608                   -2.50734         176.631         -50.5028        -74.5704         -50.5027        -74.5677       -0.0208592         143.498
0.609                    -2.5632         175.935         -50.3056        -76.5432         -50.3054        -76.5423       -0.0210817         143.419
0.61                    -2.62009         175.237          -50.112        -78.5345         -50.1118        -78.5355       -0.0213071          143.34
0.611                   -2.67802         174.538         -49.9221        -80.5443         -49.9218         -80.547       -0.0215354         143.261
0.612                     -2.737         173.838          -49.736        -82.5724         -49.7356        -82.5769       -0.0217668         143.181
0.613                   -2.79706         173.137         -49.5538        -84.6187         -49.5534         -84.625       -0.0220012         143.101
0.614                   -2.85819         172.434         -49.3757        -86.6829         -49.3752        -86.6909       -0.0222387         143.022
0.615                   -2.92041          171.73         -49.2016        -88.7647         -49.2011        -88.7744       -0.0224793         142.942
0.616                   -2.98375         171.025         -49.0318        -90.8637         -49.0312        -90.8751       -0.0227232         142.861
0.617                   -3.04821         170.319         -48.8663        -92.9794         -48.8657        -92.9924       -0.0229703         142.781
0.618                    -3.1138         169.612         -48.7052        -95.1112         -48.7046        -95.1258       -0.0232208           142.7
0.619                   -3.18055         168.904         -48.5486        -97.2586          -48.548        -97.2748       -0.0234746         142.619
0.62                    -3.24845         168.195         -48.3966        -99.4208         -48.3961        -99.4385       -0.0237319         142.538
0.621                   -3.31754         167.486         -48.2493        -101.597         -48.2488        -101.616       -0.0239927         142.456
0.622                   -3.38782         166.776         -48.1067        -103.787         -48.1062        -103.807       -0.0242571         142.374
0.623                    -3.4593         166.066         -47.9689        -105.989         -47.9684        -106.011       -0.0245251         142.292
0.624                     -3.532         165.355          -47.836        -108.202         -47.8355        -108.225       -0.0247969          142.21
0.625                   -3.60594         164.644         -47.7079        -110.426         -47.7075         -110.45       -0.0250724         142.128
0.626                   -3.68113         163.933         -47.5848         -112.66         -47.5844        -112.685       -0.0253518         142.045
0.627                   -3.75758         163.222         -47.4666        -114.902         -47.4663        -114.928       -0.0256351         141.962
0.628                    -3.8353          162.51         -47.3533        -117.151         -47.3531        -117.178       -0.0259223         141.878
0.629                   -3.91432         161.799          -47.245        -119.406         -47.2448        -119.435       -0.0262137         141.795
0.63                    -3.99465         161.088         -47.1415        -121.667         -47.1414        -121.696       -0.0265092         141.711
0.631                   -4.07629         160.377         -47.0429        -123.932         -47.0429        -123.962        -0.026809         141.627
0.632                   -4.15928         159.667         -46.9492          -126.2         -46.9492         -126.23        -0.027113         141.543
0.633                   -4.24361         158.957         -46.8602        -128.469         -46.8603          -128.5       -0.0274215         141.458
0.634                   -4.32931         158.248         -46.7759        -130.739         -46.7761        -130.771       -0.0277344         141.373
0.635                   -4.41639          157.54         -46.6962        -133.009         -46.6964        -133.041       -0.0280519         141.288
0.636                   -4.50487         156.833          -46.621        -135.278         -46.6213         -135.31       -0.0283741         141.202
0.637                   -4.59477         156.127         -46.5501        -137.544         -46.5506        -137.577        -0.028701         141.116
0.638                   -4.68609         155.422         -46.4836        -139.807         -46.4841         -139.84       -0.0290328          141.03
0.639                   -4.77885         154.718         -46.4213        -142.066         -46.4218        -142.099       -0.0293696         140.944
0.64                    -4.87308         154.016         -46.3629         -144.32         -46.3636        -144.353       -0.0297113         140.857
0.641                   -4.96878         153.315         -46.3084        -146.569         -46.3092        -146.602       -0.0300583          140.77
0.642                   -5.06598         152.616         -46.2577        -148.811         -46.2585        -148.843       -0.0304105         140.682
0.643                   -5.16468         151.919         -46.2105        -151.045         -46.2114        -151.078        -0.030768         140.595
0.644                   -5.26491         151.224         -46.1667        -153.272         -46.1677        -153.304       -0.0311311         140.507
0.645                   -5.36669         150.532         -46.1262        -155.491         -46.1272        -155.523       -0.0314997         140.418
0.646                   -5.47002         149.842         -46.0887        -157.701         -46.0898        -157.732       -0.0318741          140.33
0.647                   -5.57494         149.154         -46.0542        -159.901         -46.0553        -159.933       -0.0322542          140.24
0.648                   -5.68145         148.469         -46.0224        -162.093         -46.0235        -162.123       -0.0326404         140.151
0.649                   -5.78958         147.787         -45.9931        -164.274         -45.9943        -164.304       -0.0330326         140.061
0.65                    -5.89933         147.109         -45.9662        -166.446         -45.9674        -166.475        -0.033431         139.971
0.651                   -6.01074         146.433         -45.9416        -168.607         -45.9428        -168.636       -0.0338357         139.881
0.652                   -6.12382         145.762          -45.919        -170.758         -45.9202        -170.786        -0.034247          139.79
0.653                   -6.23859         145.094         -45.8982        -172.899         -45.8995        -172.926       -0.0346648         139.699
0.654                   -6.35507          144.43         -45.8792        -175.029         -45.8804        -175.056       -0.0350894         139.607
0.655                   -6.47327          143.77         -45.8617        -177.149          -45.863        -177.175       -0.0355209         139.515
0.656                   -6.59322         143.115         -45.8456        -179.258         -45.8469        -179.284       -0.0359595         139.423
0.657                   -6.71494         142.465         -45.8308         178.642          -45.832         178.618       -0.0364053          139.33
0.658                   -6.83845          141.82          -45.817         176.553         -45.8182         176.529       -0.0368584         139.237
0.659                   -6.96377          141.18         -45.8041         174.474         -45.8053         174.451       -0.0373191         139.143
0.66                    -7.09091         140.545          -45.792         172.404         -45.7933         172.382       -0.0377875         139.049
0.661                   -7.21991         139.917         -45.7806         170.344         -45.7818         170.323       -0.0382638         138.955
0.662                   -7.35078         139.295         -45.7697         168.293         -45.7709         168.273       -0.0387482          138.86
0.663                   -7.48354         138.679         -45.7592         166.251         -45.7603         166.232       -0.0392407         138.765
0.664                   -7.61821          138.07         -45.7489         164.218           -45.75           164.2       -0.0397417         138.669
0.665                   -7.75482         137.469         -45.7387         162.194         -45.7398         162.176       -0.0402514         138.573
0.666                   -7.89339         136.875         -45.7286         160.177         -45.7296         160.161       -0.0407698         138.476
0.667                   -8.03393         136.289         -45.7183         158.169         -45.7193         158.153       -0.0412973         138.379
0.668                   -8.17648         135.711         -45.7079         156.167         -45.7088         156.153        -0.041834         138.282
0.669                   -8.32104         135.143         -45.6971         154.174          -45.698          154.16       -0.0423801         138.184
0.67                    -8.46764         134.583         -45.6859         152.187         -45.6867         152.174       -0.0429359         138.085
0.671                   -8.61631         134.034         -45.6742         150.207          -45.675         150.195       -0.0435016         137.986
0.672                   -8.76705         133.495         -45.6619         148.233         -45.6626         148.222       -0.0440774         137.887
0.673                   -8.91989         132.967         -45.6489         146.265         -45.6495         146.255       -0.0446636         137.787
0.674                   -9.07485          132.45         -45.6351         144.303         -45.6357         144.293       -0.0452604         137.686
0.675                   -9.23194         131.945         -45.6204         142.346          -45.621         142.338       -0.0458681         137.585
0.676                   -9.39117         131.453         -45.6049         140.394         -45.6054         140.387       -0.0464869         137.484
0.677                   -9.55257         130.974         -45.5883         138.447         -45.5887         138.441       -0.0471172         137.382
0.678                   -9.71614          130.51         -45.5706         136.505          -45.571         136.499       -0.0477591         137.279
0.679                   -9.88189          130.06         -45.5518         134.567         -45.5521         134.562        -0.048413         137.176
0.68                    -10.0498         129.625         -45.5317         132.633          -45.532         132.629       -0.0490791         137.072
0.681                   -10.2199         129.207         -45.5104         130.703         -45.5106           130.7       -0.0497578         136.968
0.682                   -10.3923         128.806         -45.4878         128.776         -45.4879         128.774       -0.0504494         136.863
0.683                   -10.5668         128.423         -45.4637         126.853         -45.4639         126.852       -0.0511542         136.758
0.684                   -10.7434         128.059         -45.4383         124.933         -45.4383         124.932       -0.0518725         136.652
0.685                   -10.9223         127.715         -45.4113         123.016         -45.4113         123.016       -0.0526047         136.545
0.686                   -11.1032         127.392         -45.3828         121.101         -45.3828         121.102       -0.0533511         136.438
0.687                   -11.2863         127.092         -45.3527         119.189         -45.3527          119.19       -0.0541121          136.33
0.688                   -11.4715         126.815          -45.321         117.279         -45.3209         117.281       -0.0548881         136.221
0.689                   -11.6586         126.562         -45.2877         115.371         -45.2875         115.374       -0.0556794         136.112
0.69                    -11.8478         126.335         -45.2527         113.466         -45.2524         113.469       -0.0564865         136.002
0.691                   -12.0388         126.135         -45.2159         111.562         -45.2156         111.566       -0.0573097         135.891
0.692                   -12.2317         125.964         -45.1774          109.66         -45.1771         109.665       -0.0581495          135.78
0.693                   -12.4263         125.823          -45.137          107.76         -45.1367         107.765       -0.0590063         135.668
0.694                   -12.6225         125.713         -45.0949         105.861         -45.0945         105.867       -0.0598806         135.555
0.695                   -12.8202         125.636          -45.051         103.963         -45.0506          103.97       -0.0607728         135.442
0.696                   -13.0192         125.594         -45.0051         102.067         -45.0047         102.074       -0.0616834         135.328
0.697                   -13.2193         125.589         -44.9574         100.172          -44.957          100.18       -0.0626129         135.213