! TOUCHSTONE file generated by CST MICROWAVE STUDIO
! Date and time: Mon Oct 26 12:04:21 2020
! Project name: Scenario_1_Circular_Tissue_out_of_Line_v2.cst
! Parameters = {dy1=-294.1; L_HA=400; MT=2.54; Rad_Dielectric=30; Rad_Lower=7.3; Rad_Upper=30; a_HA=580; a_WG=246; b_HA=500; b_WG=121; c_HA=0; c_WG=187; d_feed=85; dx1=173; h_feed=15; h_lower=18; h_upper=40}
! Header version: 2018
! Port assignment regex: !\s*Touchstone port\s*([0-9]+)\s*=\s*(CST MWS port|CST DS port)\s*([0-9]+|Zmin|Zmax)\s*\(\"(.*)\"\)(\s*mode\s*([0-9]+))?.*
! Touchstone port assignment:
! Touchstone port 1 = CST MWS port 1 ("")
! Touchstone port 2 = CST MWS port 2 ("")
# GHz S DB R 50
0.5                    -0.152142        -122.568         -62.6557         99.4551         -62.6555         99.4533      -0.00691592         151.135
0.501                  -0.160011        -122.998         -62.5013         97.8516          -62.501         97.8503      -0.00698248         151.069
0.502                   -0.16799         -123.43         -62.3465         96.2483          -62.346         96.2475      -0.00704991         151.004
0.503                  -0.176083        -123.863         -62.1912         94.6449         -62.1907         94.6446      -0.00711821         150.939
0.504                   -0.18429        -124.298         -62.0357         93.0413          -62.035         93.0416      -0.00718738         150.873
0.505                  -0.192612        -124.735         -61.8798         91.4375         -61.8791         91.4382      -0.00725742         150.808
0.506                  -0.201052        -125.173         -61.7237         89.8331          -61.723         89.8343      -0.00732835         150.742
0.507                  -0.209612        -125.613         -61.5675         88.2281         -61.5666         88.2297      -0.00740016         150.676
0.508                  -0.218292        -126.055         -61.4111         86.6223         -61.4102         86.6244      -0.00747287          150.61
0.509                  -0.227095        -126.499         -61.2547         85.0155         -61.2537          85.018      -0.00754648         150.544
0.51                   -0.236022        -126.945         -61.0982         83.4076         -61.0971         83.4106      -0.00762099         150.478
0.511                  -0.245076        -127.393         -60.9417         81.7985         -60.9406         81.8019      -0.00769642         150.412
0.512                  -0.254258        -127.842         -60.7853          80.188         -60.7841         80.1918      -0.00777276         150.346
0.513                  -0.263571        -128.293         -60.6291         78.5759         -60.6278         78.5801      -0.00785003          150.28
0.514                  -0.273016        -128.747         -60.4729         76.9622         -60.4716         76.9667      -0.00792823         150.214
0.515                  -0.282597        -129.202          -60.317         75.3466         -60.3157         75.3515      -0.00800736         150.147
0.516                  -0.292314        -129.659         -60.1614         73.7291           -60.16         73.7343      -0.00808744         150.081
0.517                  -0.302172        -130.119          -60.006         72.1094         -60.0046          72.115      -0.00816847         150.014
0.518                  -0.312171         -130.58          -59.851         70.4876         -59.8495         70.4934      -0.00825045         149.948
0.519                  -0.322316        -131.043         -59.6964         68.8635         -59.6949         68.8696       -0.0083334         149.881
0.52                   -0.332607        -131.509         -59.5422         67.2369         -59.5406         67.2433      -0.00841732         149.814
0.521                  -0.343049        -131.977         -59.3886         65.6078         -59.3869         65.6144      -0.00850222         149.747
0.522                  -0.353644        -132.446         -59.2354         63.9761         -59.2337          63.983       -0.0085881          149.68
0.523                  -0.364395        -132.918         -59.0828         62.3417         -59.0811         62.3488      -0.00867498         149.613
0.524                  -0.375305        -133.392         -58.9309         60.7045         -58.9291         60.7118      -0.00876286         149.546
0.525                  -0.386377        -133.869         -58.7796         59.0645         -58.7778         59.0719      -0.00885175         149.479
0.526                  -0.397615        -134.347          -58.629         57.4215         -58.6272         57.4291      -0.00894165         149.411
0.527                  -0.409022        -134.828         -58.4792         55.7756         -58.4773         55.7834      -0.00903258         149.344
0.528                  -0.420602        -135.311         -58.3301         54.1268         -58.3283         54.1346      -0.00912454         149.276
0.529                  -0.432357        -135.797         -58.1819         52.4749           -58.18         52.4828      -0.00921754         149.209
0.53                   -0.444293        -136.285         -58.0346         50.8199         -58.0327          50.828       -0.0093116         149.141
0.531                  -0.456413        -136.775         -57.8882          49.162         -57.8863         49.1701      -0.00940671         149.073
0.532                  -0.468721        -137.268         -57.7427          47.501         -57.7408         47.5091      -0.00950289         149.006
0.533                  -0.481221        -137.763         -57.5983         45.8369         -57.5964         45.8452      -0.00960015         148.938
0.534                  -0.493917         -138.26         -57.4549         44.1699          -57.453         44.1782       -0.0096985         148.869
0.535                  -0.506815         -138.76         -57.3126            42.5         -57.3106         42.5082      -0.00979794         148.801
0.536                  -0.519918        -139.263         -57.1714         40.8271         -57.1694         40.8354      -0.00989849         148.733
0.537                  -0.533232        -139.768         -57.0313         39.1514         -57.0294         39.1596       -0.0100002         148.665
0.538                  -0.546761        -140.276         -56.8925         37.4729         -56.8905         37.4811       -0.0101029         148.596
0.539                  -0.560511        -140.787         -56.7548         35.7918         -56.7528         35.7999       -0.0102069         148.528
0.54                   -0.574487          -141.3         -56.6184         34.1081         -56.6164         34.1161       -0.0103119         148.459
0.541                  -0.588695        -141.816         -56.4833         32.4219         -56.4813         32.4299       -0.0104182          148.39
0.542                  -0.603139        -142.334         -56.3496         30.7333         -56.3476         30.7412       -0.0105256         148.321
0.543                  -0.617827        -142.856         -56.2171         29.0425         -56.2151         29.0503       -0.0106341         148.252
0.544                  -0.632764         -143.38         -56.0861         27.3497         -56.0841         27.3574       -0.0107439         148.183
0.545                  -0.647956        -143.907         -55.9564         25.6549         -55.9544         25.6625       -0.0108549         148.114
0.546                  -0.663409        -144.436         -55.8282         23.9583         -55.8262         23.9658       -0.0109671         148.045
0.547                  -0.679132        -144.969         -55.7014         22.2602         -55.6995         22.2675       -0.0110805         147.975
0.548                  -0.695129        -145.505         -55.5761         20.5606         -55.5742         20.5677       -0.0111951         147.906
0.549                  -0.711409        -146.043         -55.4523         18.8598         -55.4504         18.8668        -0.011311         147.836
0.55                   -0.727979        -146.585           -55.33          17.158         -55.3281         17.1648       -0.0114282         147.767
0.551                  -0.744846         -147.13         -55.2093         15.4553         -55.2074         15.4619       -0.0115466         147.697
0.552                  -0.762019        -147.677           -55.09         13.7521         -55.0881         13.7585       -0.0116664         147.627
0.553                  -0.779504        -148.228         -54.9724         12.0484         -54.9705         12.0546       -0.0117874         147.557
0.554                  -0.797312        -148.782         -54.8562         10.3445         -54.8544         10.3506       -0.0119097         147.486
0.555                  -0.815449        -149.339         -54.7417         8.64076         -54.7399         8.64655       -0.0120334         147.416
0.556                  -0.833925        -149.899         -54.6287         6.93725         -54.6269         6.94283       -0.0121584         147.346
0.557                   -0.85275        -150.463         -54.5173         5.23427         -54.5155         5.23962       -0.0122848         147.275
0.558                  -0.871931        -151.029         -54.4075         3.53205         -54.4058         3.53718       -0.0124126         147.204
0.559                   -0.89148        -151.599         -54.2993         1.83083         -54.2975         1.83573       -0.0125417         147.134
0.56                   -0.911406        -152.173         -54.1927        0.130859         -54.1909        0.135519       -0.0126723         147.063
0.561                  -0.931719        -152.749         -54.0876        -1.56763         -54.0859         -1.5632       -0.0128043         146.992
0.562                  -0.952429        -153.329         -53.9841        -3.26439         -53.9824         -3.2602       -0.0129377         146.921
0.563                  -0.973548        -153.913         -53.8821        -4.95917         -53.8805        -4.95523       -0.0130726         146.849
0.564                  -0.995087          -154.5         -53.7817        -6.65175         -53.7801        -6.64805       -0.0132089         146.778
0.565                   -1.01706         -155.09         -53.6828        -8.34188         -53.6812        -8.33842       -0.0133467         146.706
0.566                   -1.03947        -155.684         -53.5855        -10.0293         -53.5839        -10.0261       -0.0134861         146.635
0.567                   -1.06234        -156.281         -53.4896        -11.7139         -53.4881        -11.7109       -0.0136269         146.563
0.568                   -1.08567        -156.882         -53.3952        -13.3953         -53.3937        -13.3925       -0.0137693         146.491
0.569                   -1.10949        -157.486         -53.3023        -15.0733         -53.3008        -15.0708       -0.0139133         146.419
0.57                     -1.1338        -158.094         -53.2108        -16.7478         -53.2094        -16.7455       -0.0140588         146.347
0.571                   -1.15862        -158.706         -53.1208        -18.4185         -53.1193        -18.4165       -0.0142059         146.274
0.572                   -1.18395        -159.321         -53.0321        -20.0852         -53.0307        -20.0834       -0.0143547         146.202
0.573                   -1.20983        -159.939         -52.9448        -21.7477         -52.9434        -21.7462       -0.0145051         146.129
0.574                   -1.23625        -160.562         -52.8588        -23.4059         -52.8575        -23.4046       -0.0146572         146.056
0.575                   -1.26323        -161.188         -52.7741        -25.0595         -52.7728        -25.0584       -0.0148109         145.983
0.576                    -1.2908        -161.818         -52.6907        -26.7084         -52.6895        -26.7075       -0.0149663          145.91
0.577                   -1.31896        -162.451         -52.6086        -28.3525         -52.6074        -28.3518       -0.0151235         145.837
0.578                   -1.34773        -163.089         -52.5276        -29.9915         -52.5264         -29.991       -0.0152824         145.764
0.579                   -1.37713         -163.73         -52.4478        -31.6253         -52.4467         -31.625       -0.0154431          145.69
0.58                    -1.40717        -164.374         -52.3692        -33.2538         -52.3681        -33.2537       -0.0156055         145.617
0.581                   -1.43788        -165.023         -52.2917        -34.8769         -52.2906         -34.877       -0.0157698         145.543
0.582                   -1.46926        -165.675         -52.2152        -36.4944         -52.2142        -36.4947       -0.0159359         145.469
0.583                   -1.50134        -166.331         -52.1398        -38.1063         -52.1388        -38.1068       -0.0161039         145.395
0.584                   -1.53414         -166.99         -52.0654        -39.7124         -52.0644        -39.7131       -0.0162738         145.321
0.585                   -1.56767        -167.654         -51.9919        -41.3127          -51.991        -41.3135       -0.0164456         145.246
0.586                   -1.60195        -168.321         -51.9194         -42.907         -51.9185         -42.908       -0.0166193         145.172
0.587                     -1.637        -168.992         -51.8477        -44.4954         -51.8469        -44.4965        -0.016795         145.097
0.588                   -1.67285        -169.666         -51.7769        -46.0777         -51.7761         -46.079       -0.0169727         145.022
0.589                   -1.70951        -170.344         -51.7069        -47.6539         -51.7061        -47.6554       -0.0171524         144.947
0.59                    -1.74699        -171.026         -51.6377         -49.224         -51.6369        -49.2256       -0.0173342         144.872
0.591                   -1.78534        -171.711         -51.5692        -50.7879         -51.5684        -50.7896        -0.017518         144.796
0.592                   -1.82455          -172.4         -51.5013        -52.3456         -51.5007        -52.3475        -0.017704         144.721
0.593                   -1.86466        -173.093         -51.4342        -53.8971         -51.4335        -53.8991       -0.0178921         144.645
0.594                   -1.90569        -173.789         -51.3677        -55.4424          -51.367        -55.4445       -0.0180824         144.569
0.595                   -1.94765        -174.488         -51.3017        -56.9815         -51.3011        -56.9837       -0.0182749         144.493
0.596                   -1.99057        -175.191         -51.2363        -58.5144         -51.2358        -58.5167       -0.0184696         144.416
0.597                   -2.03448        -175.898         -51.1714         -60.041         -51.1709        -60.0434       -0.0186666          144.34
0.598                    -2.0794        -176.608          -51.107        -61.5615         -51.1065         -61.564       -0.0188659         144.263
0.599                   -2.12534        -177.321          -51.043        -63.0759         -51.0426        -63.0785       -0.0190676         144.186
0.6                     -2.17233        -178.037         -50.9795        -64.5842          -50.979        -64.5868       -0.0192716         144.109
0.601                    -2.2204        -178.756         -50.9163        -66.0864         -50.9159        -66.0891       -0.0194781         144.032
0.602                   -2.26957        -179.478         -50.8534        -67.5825          -50.853        -67.5854        -0.019687         143.955
0.603                   -2.31986         179.796         -50.7909        -69.0728         -50.7905        -69.0757       -0.0198983         143.877
0.604                   -2.37129         179.068         -50.7286        -70.5571         -50.7283        -70.5601       -0.0201122         143.799
0.605                    -2.4239         178.337         -50.6666        -72.0356         -50.6663        -72.0386       -0.0203287         143.721
0.606                    -2.4777         177.603         -50.6048        -73.5083         -50.6045        -73.5114       -0.0205478         143.643
0.607                   -2.53271         176.867         -50.5432        -74.9754         -50.5429        -74.9785       -0.0207695         143.565
0.608                   -2.58897         176.128         -50.4817        -76.4368         -50.4814          -76.44       -0.0209939         143.486
0.609                   -2.64649         175.386         -50.4203        -77.8927         -50.4201        -77.8959       -0.0212211         143.407
0.61                     -2.7053         174.643         -50.3591        -79.3431         -50.3589        -79.3464        -0.021451         143.328
0.611                   -2.76542         173.897         -50.2979        -80.7882         -50.2977        -80.7915       -0.0216838         143.249
0.612                   -2.82688          173.15         -50.2368        -82.2281         -50.2366        -82.2313       -0.0219194          143.17
0.613                    -2.8897           172.4         -50.1757        -83.6627         -50.1756         -83.666        -0.022158          143.09
0.614                    -2.9539         171.649         -50.1146        -85.0923         -50.1145        -85.0956       -0.0223995          143.01
0.615                   -3.01951         170.896         -50.0535        -86.5169         -50.0534        -86.5202       -0.0226441          142.93
0.616                   -3.08655         170.142         -49.9923        -87.9366         -49.9922          -87.94       -0.0228917         142.849
0.617                   -3.15503         169.387         -49.9311        -89.3516          -49.931        -89.3549       -0.0231424         142.769
0.618                   -3.22499         168.631         -49.8697        -90.7619         -49.8696        -90.7652       -0.0233963         142.688
0.619                   -3.29644         167.874         -49.8083        -92.1677         -49.8082         -92.171       -0.0236534         142.607
0.62                    -3.36941         167.116         -49.7467         -93.569         -49.7466        -93.5723       -0.0239138         142.526
0.621                   -3.44391         166.357         -49.6849         -94.966         -49.6849        -94.9693       -0.0241776         142.444
0.622                   -3.51997         165.599          -49.623        -96.3588          -49.623        -96.3621       -0.0244448         142.362
0.623                   -3.59761          164.84         -49.5609        -97.7475         -49.5609        -97.7507       -0.0247154          142.28
0.624                   -3.67684         164.082         -49.4986        -99.1321         -49.4986        -99.1354       -0.0249895         142.198
0.625                   -3.75768         163.324         -49.4361        -100.513         -49.4361        -100.516       -0.0252673         142.115
0.626                   -3.84015         162.566         -49.3733         -101.89         -49.3733        -101.893       -0.0255487         142.033
0.627                   -3.92427          161.81         -49.3103        -103.263         -49.3103        -103.267       -0.0258338          141.95
0.628                   -4.01005         161.054          -49.247        -104.633          -49.247        -104.636       -0.0261226         141.866
0.629                   -4.09751           160.3         -49.1835            -106         -49.1835        -106.003       -0.0264154         141.783
0.63                    -4.18666         159.548         -49.1196        -107.363         -49.1196        -107.366        -0.026712         141.699
0.631                   -4.27751         158.797         -49.0554        -108.723         -49.0555        -108.726       -0.0270127         141.615
0.632                   -4.37009         158.049         -48.9909         -110.08          -48.991        -110.083       -0.0273174          141.53
0.633                   -4.46439         157.303         -48.9261        -111.434         -48.9262        -111.437       -0.0276263         141.446
0.634                   -4.56043         156.559          -48.861        -112.785          -48.861        -112.788       -0.0279394         141.361
0.635                   -4.65822         155.819         -48.7955        -114.134         -48.7955        -114.137       -0.0282568         141.275
0.636                   -4.75776         155.082         -48.7296         -115.48         -48.7297        -115.483       -0.0285787          141.19
0.637                   -4.85907         154.349         -48.6634        -116.823         -48.6635        -116.826       -0.0289049         141.104
0.638                   -4.96215         153.619         -48.5968        -118.164         -48.5969        -118.167       -0.0292358         141.018
0.639                     -5.067         152.894         -48.5298        -119.503         -48.5299        -119.506       -0.0295713         140.931
0.64                    -5.17363         152.173         -48.4625         -120.84         -48.4625        -120.843       -0.0299115         140.845
0.641                   -5.28204         151.457         -48.3947        -122.175         -48.3947        -122.177       -0.0302566         140.758
0.642                   -5.39223         150.746         -48.3265        -123.508         -48.3266         -123.51       -0.0306066          140.67
0.643                    -5.5042         150.041         -48.2579        -124.839          -48.258        -124.841       -0.0309616         140.582
0.644                   -5.61794         149.341         -48.1889        -126.168          -48.189        -126.171       -0.0313218         140.494
0.645                   -5.73347         148.647         -48.1195        -127.496         -48.1196        -127.499       -0.0316872         140.406
0.646                   -5.85076          147.96         -48.0497        -128.823         -48.0497        -128.825        -0.032058         140.317
0.647                   -5.96981          147.28         -47.9794        -130.148         -47.9795         -130.15       -0.0324342         140.228
0.648                   -6.09062         146.607         -47.9088        -131.472         -47.9088        -131.474        -0.032816         140.139
0.649                   -6.21317         145.942         -47.8376        -132.795         -47.8377        -132.797       -0.0332034         140.049
0.65                    -6.33747         145.284         -47.7661        -134.117         -47.7661        -134.119       -0.0335967         139.959
0.651                   -6.46348         144.635         -47.6941        -135.438         -47.6941         -135.44       -0.0339958         139.868
0.652                   -6.59121         143.994         -47.6217        -136.758         -47.6217         -136.76       -0.0344011         139.778
0.653                   -6.72063         143.362         -47.5488        -138.077         -47.5488        -138.079       -0.0348125         139.686
0.654                   -6.85173         142.739         -47.4755        -139.396         -47.4755        -139.398       -0.0352302         139.595
0.655                   -6.98449         142.126         -47.4018        -140.715         -47.4018        -140.716       -0.0356543         139.503
0.656                   -7.11889         141.523         -47.3276        -142.033         -47.3276        -142.035       -0.0360851         139.411
0.657                    -7.2549         140.931          -47.253        -143.351          -47.253        -143.352       -0.0365226         139.318
0.658                   -7.39251         140.349          -47.178        -144.669          -47.178         -144.67       -0.0369669         139.225
0.659                   -7.53169         139.778         -47.1025        -145.986         -47.1025        -145.987       -0.0374183         139.131
0.66                    -7.67241         139.219         -47.0266        -147.304         -47.0266        -147.305       -0.0378769         139.037
0.661                   -7.81463         138.672         -46.9503        -148.622         -46.9502        -148.623       -0.0383429         138.943
0.662                   -7.95834         138.137         -46.8736         -149.94         -46.8735        -149.941       -0.0388163         138.848
0.663                   -8.10349         137.615         -46.7964        -151.258         -46.7963        -151.259       -0.0392975         138.753
0.664                   -8.25005         137.105         -46.7188        -152.577         -46.7187        -152.577       -0.0397865         138.657
0.665                   -8.39799         136.609         -46.6408        -153.896         -46.6407        -153.897       -0.0402836         138.561
0.666                   -8.54726         136.127         -46.5624        -155.215         -46.5623        -155.216       -0.0407889         138.464
0.667                   -8.69782         135.659         -46.4836        -156.536         -46.4835        -156.537       -0.0413026         138.367
0.668                   -8.84963         135.206         -46.4045        -157.857         -46.4043        -157.858        -0.041825          138.27
0.669                   -9.00263         134.767         -46.3249        -159.179         -46.3248         -159.18       -0.0423562         138.172
0.67                    -9.15679         134.344         -46.2449        -160.502         -46.2448        -160.503       -0.0428964         138.074
0.671                   -9.31205         133.937         -46.1646        -161.826         -46.1644        -161.826       -0.0434459         137.975
0.672                   -9.46834         133.545         -46.0839        -163.151         -46.0837        -163.151       -0.0440049         137.875
0.673                   -9.62563          133.17         -46.0028        -164.477         -46.0027        -164.477       -0.0445737         137.775
0.674                   -9.78384         132.812         -45.9214        -165.804         -45.9212        -165.805       -0.0451524         137.675
0.675                   -9.94291         132.471         -45.8396        -167.133         -45.8395        -167.133       -0.0457413         137.574
0.676                   -10.1028         132.148         -45.7575        -168.463         -45.7573        -168.463       -0.0463407         137.473
0.677                   -10.2634         131.843         -45.6751        -169.794         -45.6749        -169.795       -0.0469508         137.371
0.678                   -10.4246         131.555         -45.5923        -171.127         -45.5922        -171.127       -0.0475719         137.268
0.679                   -10.5864         131.287         -45.5093        -172.462         -45.5091        -172.462       -0.0482043         137.165
0.68                    -10.7487         131.037         -45.4259        -173.798         -45.4257        -173.798       -0.0488482         137.061
0.681                   -10.9114         130.807         -45.3423        -175.135         -45.3421        -175.135        -0.049504         136.957
0.682                   -11.0745         130.597         -45.2584        -176.475         -45.2582        -176.475        -0.050172         136.852
0.683                   -11.2377         130.406         -45.1742        -177.816          -45.174        -177.816       -0.0508525         136.747
0.684                   -11.4011         130.236         -45.0897        -179.159         -45.0895        -179.159       -0.0515458         136.641
0.685                   -11.5646         130.086         -45.0051         179.496         -45.0048         179.497       -0.0522522         136.534
0.686                   -11.7279         129.957         -44.9201          178.15         -44.9199          178.15       -0.0529722         136.427
0.687                   -11.8911         129.849          -44.835         176.801         -44.8347         176.801       -0.0537059         136.319
0.688                   -12.0539         129.762         -44.7497         175.451         -44.7494         175.451       -0.0544539         136.211
0.689                   -12.2164         129.697         -44.6641         174.098         -44.6638         174.098       -0.0552165         136.102
0.69                    -12.3783         129.653         -44.5784         172.744         -44.5781         172.744        -0.055994         135.992
0.691                   -12.5395         129.632         -44.4925         171.387         -44.4922         171.387       -0.0567869         135.881
0.692                      -12.7         129.632         -44.4064         170.028         -44.4061         170.029       -0.0575955          135.77
0.693                   -12.8595         129.654         -44.3202         168.668         -44.3199         168.668       -0.0584203         135.658
0.694                   -13.0179         129.698         -44.2339         167.305         -44.2336         167.306       -0.0592617         135.546
0.695                   -13.1751         129.764         -44.1474          165.94         -44.1471         165.941       -0.0601201         135.432
0.696                    -13.331         129.852         -44.0608         164.573         -44.0606         164.574       -0.0609959         135.318
0.697                   -13.4853         129.962         -43.9742         163.204         -43.9739         163.205       -0.0618896         135.203