! TOUCHSTONE file generated by CST MICROWAVE STUDIO
! Date and time: Wed Oct 28 19:33:55 2020
! Project name: Scenario_1_Circular_Tissue_out_of_Line_v2.cst
! Parameters = {dy1=-294.1; L_HA=400; MT=2.54; Rad_Dielectric=30; Rad_Lower=7.3; Rad_Upper=30; a_HA=580; a_WG=246; b_HA=500; b_WG=121; c_HA=0; c_WG=187; d_feed=85; dx1=346; h_feed=15; h_lower=18; h_upper=40}
! Header version: 2018
! Port assignment regex: !\s*Touchstone port\s*([0-9]+)\s*=\s*(CST MWS port|CST DS port)\s*([0-9]+|Zmin|Zmax)\s*\(\"(.*)\"\)(\s*mode\s*([0-9]+))?.*
! Touchstone port assignment:
! Touchstone port 1 = CST MWS port 1 ("")
! Touchstone port 2 = CST MWS port 2 ("")
# GHz S DB R 50
0.5                    -0.143009        -122.305           -63.27        -5.21649           -63.27        -5.21649      -0.00789733         151.134
0.501                  -0.145651        -122.776         -63.0807        -6.99409         -63.0808        -6.99412      -0.00795071         151.069
0.502                  -0.148644        -123.249         -62.8931        -8.73725         -62.8932        -8.73732      -0.00800493         151.004
0.503                  -0.151992        -123.724         -62.7073        -10.4483         -62.7074        -10.4484      -0.00805999         150.939
0.504                  -0.155695          -124.2         -62.5233        -12.1294         -62.5235        -12.1295      -0.00811589         150.873
0.505                  -0.159756        -124.677         -62.3414        -13.7826         -62.3415        -13.7828      -0.00817264         150.808
0.506                  -0.164178        -125.157         -62.1614        -15.4101         -62.1616        -15.4103      -0.00823026         150.742
0.507                  -0.168961        -125.638         -61.9836        -17.0136         -61.9838        -17.0138      -0.00828873         150.676
0.508                  -0.174108        -126.121         -61.8078        -18.5949          -61.808        -18.5952      -0.00834808         150.611
0.509                  -0.179621        -126.605         -61.6341        -20.1558         -61.6343        -20.1561      -0.00840831         150.545
0.51                   -0.185502        -127.091         -61.4625        -21.6978         -61.4628        -21.6982      -0.00846943         150.479
0.511                  -0.191751        -127.578         -61.2931        -23.2225         -61.2934         -23.223      -0.00853144         150.413
0.512                  -0.198372        -128.067         -61.1257        -24.7313          -61.126        -24.7318      -0.00859435         150.347
0.513                  -0.205364        -128.557         -60.9605        -26.2256         -60.9608        -26.2261      -0.00865817         150.281
0.514                   -0.21273        -129.049         -60.7973        -27.7067         -60.7976        -27.7072       -0.0087229         150.214
0.515                   -0.22047        -129.543         -60.6361        -29.1757         -60.6364        -29.1762      -0.00878856         150.148
0.516                  -0.228587        -130.038         -60.4769        -30.6338         -60.4772        -30.6344      -0.00885515         150.082
0.517                  -0.237081        -130.534         -60.3197        -32.0822           -60.32        -32.0827      -0.00892268         150.015
0.518                  -0.245953        -131.032         -60.1645        -33.5218         -60.1648        -33.5224      -0.00899115         149.949
0.519                  -0.255205        -131.531         -60.0111        -34.9536         -60.0114        -34.9542      -0.00906058         149.882
0.52                   -0.264836        -132.032         -59.8596        -36.3786         -59.8599        -36.3792      -0.00913098         149.815
0.521                  -0.274849        -132.534         -59.7099        -37.7976         -59.7102        -37.7982      -0.00920235         149.748
0.522                  -0.285244        -133.038          -59.562        -39.2114         -59.5623         -39.212      -0.00927469         149.682
0.523                  -0.296021        -133.542         -59.4158        -40.6209         -59.4161        -40.6215      -0.00934803         149.615
0.524                  -0.307181        -134.049         -59.2713        -42.0268         -59.2716        -42.0274      -0.00942237         149.547
0.525                  -0.318725        -134.556         -59.1284        -43.4298         -59.1287        -43.4304      -0.00949771          149.48
0.526                  -0.330653        -135.065         -58.9872        -44.8306         -58.9874        -44.8312      -0.00957407         149.413
0.527                  -0.342965        -135.575         -58.8474        -46.2298         -58.8477        -46.2304      -0.00965146         149.346
0.528                  -0.355661        -136.087         -58.7092        -47.6281         -58.7094        -47.6286      -0.00972988         149.278
0.529                  -0.368743          -136.6         -58.5725         -49.026         -58.5727        -49.0265      -0.00980935         149.211
0.53                    -0.38221        -137.114         -58.4371         -50.424         -58.4373        -50.4245      -0.00988987         149.143
0.531                  -0.396061        -137.629         -58.3032        -51.8227         -58.3034        -51.8231      -0.00997145         149.075
0.532                  -0.410298        -138.146         -58.1705        -53.2226         -58.1707         -53.223       -0.0100541         149.007
0.533                   -0.42492        -138.664         -58.0392        -54.6242         -58.0393        -54.6246       -0.0101379         148.939
0.534                  -0.439927        -139.183          -57.909        -56.0279         -57.9092        -56.0282       -0.0102227         148.871
0.535                  -0.455318        -139.703         -57.7801        -57.4341         -57.7803        -57.4344       -0.0103087         148.803
0.536                  -0.471093        -140.225         -57.6524        -58.8433         -57.6525        -58.8435       -0.0103957         148.735
0.537                  -0.487253        -140.748         -57.5257        -60.2558         -57.5258         -60.256       -0.0104839         148.667
0.538                  -0.503796        -141.272         -57.4002         -61.672         -57.4003        -61.6722       -0.0105733         148.598
0.539                  -0.520722        -141.797         -57.2756        -63.0923         -57.2757        -63.0925       -0.0106637          148.53
0.54                   -0.538031        -142.323         -57.1521         -64.517         -57.1521        -64.5171       -0.0107554         148.461
0.541                  -0.555723        -142.851         -57.0295        -65.9465         -57.0295        -65.9465       -0.0108482         148.392
0.542                  -0.573796         -143.38         -56.9078        -67.3809         -56.9079        -67.3809       -0.0109422         148.323
0.543                  -0.592249         -143.91          -56.787        -68.8206         -56.7871        -68.8206       -0.0110374         148.254
0.544                  -0.611083        -144.441         -56.6671        -70.2659         -56.6671        -70.2658       -0.0111339         148.185
0.545                  -0.630297        -144.974         -56.5479         -71.717         -56.5479        -71.7169       -0.0112315         148.116
0.546                  -0.649889        -145.507         -56.4295        -73.1742         -56.4295         -73.174       -0.0113304         148.047
0.547                   -0.66986        -146.042         -56.3119        -74.6377         -56.3119        -74.6375       -0.0114306         147.977
0.548                  -0.690208        -146.578          -56.195        -76.1076         -56.1949        -76.1074        -0.011532         147.908
0.549                  -0.710932        -147.115         -56.0787        -77.5843         -56.0787         -77.584       -0.0116346         147.838
0.55                   -0.732032        -147.654         -55.9631        -79.0678          -55.963        -79.0674       -0.0117386         147.768
0.551                  -0.753507        -148.193         -55.8481        -80.5584          -55.848        -80.5579       -0.0118439         147.699
0.552                  -0.775356        -148.734         -55.7336        -82.0562         -55.7335        -82.0557       -0.0119505         147.629
0.553                  -0.797578        -149.276         -55.6197        -83.5613         -55.6196        -83.5607       -0.0120584         147.559
0.554                  -0.820172         -149.82         -55.5063        -85.0739         -55.5062        -85.0733       -0.0121677         147.488
0.555                  -0.843139        -150.364         -55.3934        -86.5941         -55.3933        -86.5934       -0.0122784         147.418
0.556                  -0.866476         -150.91          -55.281         -88.122         -55.2808        -88.1213       -0.0123904         147.348
0.557                  -0.890183        -151.457         -55.1689        -89.6576         -55.1688        -89.6569       -0.0125039         147.277
0.558                   -0.91426        -152.006         -55.0573        -91.2012         -55.0572        -91.2004       -0.0126187         147.206
0.559                  -0.938705        -152.555         -54.9461        -92.7527         -54.9459        -92.7519        -0.012735         147.135
0.56                   -0.963519        -153.106         -54.8353        -94.3123         -54.8351        -94.3114       -0.0128527         147.065
0.561                    -0.9887        -153.659         -54.7247        -95.8798         -54.7245        -95.8789       -0.0129719         146.993
0.562                   -1.01425        -154.213         -54.6145        -97.4555         -54.6143        -97.4545       -0.0130926         146.922
0.563                   -1.04016        -154.768         -54.5046        -99.0393         -54.5044        -99.0382       -0.0132148         146.851
0.564                   -1.06644        -155.324          -54.395        -100.631         -54.3947         -100.63       -0.0133385         146.779
0.565                   -1.09309        -155.882         -54.2856        -102.231         -54.2854         -102.23       -0.0134638         146.708
0.566                    -1.1201        -156.441         -54.1765        -103.839         -54.1762        -103.838       -0.0135906         146.636
0.567                   -1.14748        -157.002         -54.0676        -105.456         -54.0673        -105.454        -0.013719         146.564
0.568                   -1.17523        -157.565         -53.9589         -107.08         -53.9586        -107.079       -0.0138489         146.492
0.569                   -1.20334        -158.129         -53.8504        -108.712         -53.8501        -108.711       -0.0139805          146.42
0.57                    -1.23182        -158.694         -53.7421        -110.352         -53.7418        -110.351       -0.0141138         146.348
0.571                   -1.26066        -159.261          -53.634            -112         -53.6336        -111.999       -0.0142487         146.276
0.572                   -1.28987         -159.83          -53.526        -113.656         -53.5256        -113.655       -0.0143852         146.203
0.573                   -1.31945          -160.4         -53.4182         -115.32         -53.4178        -115.319       -0.0145235          146.13
0.574                    -1.3494        -160.973         -53.3105        -116.991         -53.3101         -116.99       -0.0146635         146.057
0.575                   -1.37972        -161.547          -53.203         -118.67         -53.2026        -118.669       -0.0148052         145.984
0.576                   -1.41041        -162.122         -53.0956        -120.356         -53.0952        -120.355       -0.0149488         145.911
0.577                   -1.44148          -162.7         -52.9883         -122.05         -52.9879        -122.048       -0.0150941         145.838
0.578                   -1.47292        -163.279         -52.8812         -123.75         -52.8808        -123.749       -0.0152412         145.765
0.579                   -1.50474        -163.861         -52.7742        -125.458         -52.7738        -125.456       -0.0153902         145.691
0.58                    -1.53693        -164.444         -52.6673        -127.172         -52.6669        -127.171        -0.015541         145.617
0.581                   -1.56951         -165.03         -52.5605        -128.893         -52.5601        -128.892       -0.0156938         145.543
0.582                   -1.60248        -165.617         -52.4539        -130.621         -52.4535        -130.619       -0.0158485         145.469
0.583                   -1.63584        -166.207         -52.3474        -132.354          -52.347        -132.353       -0.0160051         145.395
0.584                   -1.66958        -166.799         -52.2411        -134.094         -52.2406        -134.093       -0.0161637         145.321
0.585                   -1.70373        -167.394         -52.1349         -135.84         -52.1344        -135.839       -0.0163243         145.246
0.586                   -1.73827         -167.99         -52.0288        -137.592         -52.0283         -137.59       -0.0164869         145.172
0.587                   -1.77323        -168.589         -51.9229        -139.349         -51.9224        -139.347       -0.0166516         145.097
0.588                   -1.80859        -169.191         -51.8172        -141.111         -51.8167        -141.109       -0.0168184         145.022
0.589                   -1.84437        -169.795         -51.7116        -142.878         -51.7111        -142.877       -0.0169873         144.947
0.59                    -1.88057        -170.402         -51.6062        -144.651         -51.6057        -144.649       -0.0171584         144.871
0.591                   -1.91721        -171.012          -51.501        -146.427         -51.5005        -146.426       -0.0173316         144.796
0.592                   -1.95428        -171.624          -51.396        -148.208         -51.3956        -148.207       -0.0175071          144.72
0.593                   -1.99179        -172.239         -51.2913        -149.994         -51.2908        -149.992       -0.0176848         144.644
0.594                   -2.02976        -172.857         -51.1868        -151.783         -51.1863        -151.781       -0.0178649         144.568
0.595                    -2.0682        -173.478         -51.0825        -153.575          -51.082        -153.574       -0.0180472         144.492
0.596                    -2.1071        -174.103         -50.9785        -155.371          -50.978         -155.37       -0.0182319         144.416
0.597                   -2.14649         -174.73         -50.8748         -157.17         -50.8743        -157.169        -0.018419         144.339
0.598                   -2.18637        -175.361         -50.7713        -158.972         -50.7708        -158.971       -0.0186086         144.262
0.599                   -2.22675        -175.995         -50.6682        -160.777         -50.6677        -160.775       -0.0188006         144.185
0.6                     -2.26766        -176.632         -50.5654        -162.583         -50.5649        -162.582       -0.0189951         144.108
0.601                    -2.3091        -177.274          -50.463        -164.392         -50.4625        -164.391       -0.0191922         144.031
0.602                   -2.35108        -177.918         -50.3609        -166.202         -50.3604        -166.201       -0.0193919         143.953
0.603                   -2.39362        -178.567         -50.2592        -168.014         -50.2587        -168.013       -0.0195942         143.875
0.604                   -2.43675        -179.219         -50.1579        -169.827         -50.1574        -169.826       -0.0197992         143.797
0.605                   -2.48047        -179.876          -50.057        -171.641         -50.0565         -171.64       -0.0200069         143.719
0.606                    -2.5248         179.464         -49.9565        -173.456          -49.956        -173.455       -0.0202174         143.641
0.607                   -2.56977         178.799         -49.8565        -175.271          -49.856         -175.27       -0.0204307         143.562
0.608                   -2.61539          178.13         -49.7569        -177.086         -49.7565        -177.085       -0.0206469         143.484
0.609                   -2.66169         177.457         -49.6579        -178.901         -49.6574          -178.9       -0.0208659         143.405
0.61                    -2.70869         176.779         -49.5593         179.285         -49.5588         179.285        -0.021088         143.325
0.611                   -2.75641         176.097         -49.4612         177.471         -49.4608         177.471        -0.021313         143.246
0.612                   -2.80489          175.41         -49.3637         175.658         -49.3632         175.658       -0.0215411         143.166
0.613                   -2.85414         174.718         -49.2667         173.846         -49.2663         173.847       -0.0217723         143.087
0.614                   -2.90421         174.021         -49.1703         172.036         -49.1698         172.036       -0.0220067         143.007
0.615                   -2.95511          173.32         -49.0744         170.227          -49.074         170.228       -0.0222443         142.926
0.616                   -3.00688         172.613         -48.9791          168.42         -48.9787         168.421       -0.0224852         142.846
0.617                   -3.05956         171.901         -48.8844         166.616          -48.884         166.616       -0.0227294         142.765
0.618                   -3.11319         171.183         -48.7904         164.814         -48.7899         164.814       -0.0229771         142.684
0.619                   -3.16779         170.461         -48.6969         163.014         -48.6965         163.014       -0.0232282         142.603
0.62                    -3.22341         169.732         -48.6041         161.217         -48.6036         161.218       -0.0234828         142.521
0.621                    -3.2801         168.998         -48.5118         159.424         -48.5114         159.424        -0.023741          142.44
0.622                    -3.3379         168.259         -48.4203         157.633         -48.4199         157.634       -0.0240028         142.358
0.623                   -3.39685         167.514         -48.3294         155.846          -48.329         155.847       -0.0242684         142.275
0.624                     -3.457         166.763         -48.2391         154.063         -48.2387         154.063       -0.0245378         142.193
0.625                   -3.51841         166.006         -48.1495         152.284         -48.1491         152.284        -0.024811          142.11
0.626                   -3.58112         165.243         -48.0606         150.508         -48.0602         150.508       -0.0250882         142.027
0.627                    -3.6452         164.474         -47.9723         148.737         -47.9719         148.737       -0.0253694         141.944
0.628                   -3.71071         163.699         -47.8847          146.97         -47.8843          146.97       -0.0256546          141.86
0.629                    -3.7777         162.918         -47.7978         145.207         -47.7974         145.207        -0.025944         141.777
0.63                    -3.84623         162.131         -47.7115          143.45         -47.7111         143.449       -0.0262377         141.693
0.631                   -3.91639         161.338         -47.6259         141.697         -47.6256         141.696       -0.0265357         141.608
0.632                   -3.98823         160.538          -47.541         139.949         -47.5406         139.948        -0.026838         141.524
0.633                   -4.06183         159.733         -47.4567         138.206         -47.4564         138.205       -0.0271449         141.439
0.634                   -4.13727         158.922         -47.3731         136.468         -47.3728         136.467       -0.0274564         141.353
0.635                   -4.21462         158.105         -47.2902         134.735         -47.2898         134.734       -0.0277725         141.268
0.636                   -4.29397         157.282         -47.2079         133.008         -47.2075         133.007       -0.0280934         141.182
0.637                   -4.37539         156.454         -47.1262         131.286         -47.1259         131.285       -0.0284191         141.096
0.638                   -4.45898         155.619         -47.0452          129.57         -47.0449         129.569       -0.0287499          141.01
0.639                   -4.54483          154.78         -46.9648         127.859         -46.9645         127.858       -0.0290856         140.923
0.64                    -4.63303         153.935          -46.885         126.154         -46.8848         126.153       -0.0294265         140.836
0.641                   -4.72367         153.086         -46.8059         124.455         -46.8056         124.454       -0.0297727         140.749
0.642                   -4.81685         152.232         -46.7273         122.761          -46.727         122.761       -0.0301243         140.661
0.643                   -4.91268         151.373         -46.6494         121.074         -46.6491         121.073       -0.0304813         140.573
0.644                   -5.01125         150.511          -46.572         119.392         -46.5717         119.391       -0.0308439         140.485
0.645                   -5.11267         149.644         -46.4951         117.716         -46.4949         117.715       -0.0312123         140.396
0.646                   -5.21705         148.775         -46.4189         116.046         -46.4186         116.045       -0.0315865         140.307
0.647                   -5.32449         147.903         -46.3431         114.382         -46.3429         114.381       -0.0319666         140.218
0.648                    -5.4351         147.029         -46.2679         112.724         -46.2677         112.723       -0.0323528         140.128
0.649                   -5.54899         146.154         -46.1932         111.072          -46.193         111.071       -0.0327452         140.038
0.65                    -5.66627         145.277          -46.119         109.426         -46.1188         109.425        -0.033144         139.948
0.651                   -5.78705         144.401         -46.0452         107.786          -46.045         107.785       -0.0335492         139.857
0.652                   -5.91144         143.525          -45.972         106.152         -45.9718         106.151       -0.0339611         139.766
0.653                   -6.03954          142.65         -45.8991         104.523         -45.8989         104.522       -0.0343797         139.675
0.654                   -6.17147         141.778         -45.8267         102.901         -45.8265           102.9       -0.0348053         139.583
0.655                   -6.30732         140.909         -45.7547         101.284         -45.7545         101.283       -0.0352378          139.49
0.656                    -6.4472         140.045         -45.6831          99.673         -45.6829         99.6718       -0.0356777         139.398
0.657                    -6.5912         139.186         -45.6119         98.0677         -45.6117         98.0665       -0.0361248         139.305
0.658                   -6.73941         138.334          -45.541         96.4681         -45.5409         96.4669       -0.0365795         139.211
0.659                   -6.89191         137.491         -45.4705         94.8741         -45.4703         94.8729        -0.037042         139.117
0.66                     -7.0488         136.656         -45.4003         93.2856         -45.4001         93.2844       -0.0375123         139.023
0.661                   -7.21012         135.832         -45.3304         91.7026         -45.3302         91.7014       -0.0379906         138.929
0.662                   -7.37596         135.021         -45.2607         90.1249         -45.2606         90.1238       -0.0384772         138.833
0.663                   -7.54636         134.224         -45.1914         88.5526         -45.1912         88.5515       -0.0389723         138.738
0.664                   -7.72136         133.442         -45.1222         86.9856         -45.1221         86.9844       -0.0394759         138.642
0.665                   -7.90099         132.678         -45.0533         85.4237         -45.0532         85.4225       -0.0399884         138.546
0.666                   -8.08526         131.933         -44.9846         83.8668         -44.9845         83.8656       -0.0405099         138.449
0.667                   -8.27418          131.21         -44.9161          82.315         -44.9159         82.3138       -0.0410406         138.351
0.668                   -8.46773         130.509         -44.8477          80.768         -44.8476         80.7668       -0.0415807         138.254
0.669                   -8.66586         129.834         -44.7795         79.2258         -44.7793         79.2246       -0.0421306         138.155
0.67                    -8.86854         129.187         -44.7114         77.6882         -44.7112         77.6871       -0.0426903         138.057
0.671                   -9.07567         128.569         -44.6434         76.1553         -44.6432         76.1541       -0.0432601         137.957
0.672                   -9.28716         127.983         -44.5755         74.6268         -44.5753         74.6256       -0.0438403         137.858
0.673                   -9.50289         127.431         -44.5076         73.1027         -44.5075         73.1015       -0.0444312         137.757
0.674                   -9.72271         126.916         -44.4398         71.5828         -44.4396         71.5817       -0.0450328         137.657
0.675                   -9.94643          126.44          -44.372         70.0671         -44.3718          70.066       -0.0456457         137.555
0.676                   -10.1739         126.005         -44.3042         68.5554          -44.304         68.5543       -0.0462699         137.453
0.677                   -10.4047         125.614         -44.2364         67.0476         -44.2362         67.0465       -0.0469058         137.351
0.678                   -10.6388          125.27         -44.1685         65.5437         -44.1684         65.5426       -0.0475536         137.248
0.679                   -10.8757         124.973         -44.1006         64.0434         -44.1004         64.0423       -0.0482137         137.145
0.68                    -11.1151         124.728         -44.0326         62.5467         -44.0324         62.5456       -0.0488864         137.041
0.681                   -11.3567         124.537         -43.9645         61.0534         -43.9643         61.0524       -0.0495719         136.936
0.682                   -11.5999           124.4         -43.8962         59.5634         -43.8961         59.5624       -0.0502706         136.831
0.683                   -11.8444         124.321         -43.8279         58.0767         -43.8277         58.0757       -0.0509828         136.725
0.684                   -12.0896         124.301         -43.7593         56.5931         -43.7592         56.5921       -0.0517088         136.619
0.685                   -12.3349         124.343         -43.6906         55.1124         -43.6905         55.1115        -0.052449         136.512
0.686                   -12.5797         124.446         -43.6217         53.6346         -43.6216         53.6337       -0.0532038         136.404
0.687                   -12.8234         124.614         -43.5526         52.1595         -43.5525         52.1586       -0.0539736         136.296
0.688                   -13.0654         124.845         -43.4832         50.6871         -43.4831         50.6862       -0.0547586         136.187
0.689                   -13.3048         125.142         -43.4136         49.2171         -43.4134         49.2162       -0.0555593         136.078
0.69                    -13.5409         125.503         -43.3437         47.7495         -43.3435         47.7486       -0.0563761         135.967
0.691                    -13.773         125.929         -43.2735         46.2842         -43.2733         46.2833       -0.0572094         135.856
0.692                   -14.0002         126.418         -43.2029          44.821         -43.2028         44.8202       -0.0580597         135.745
0.693                   -14.2218          126.97         -43.1321         43.3598         -43.1319          43.359       -0.0589274         135.633
0.694                    -14.437         127.581         -43.0608         41.9006         -43.0607         41.8998       -0.0598129          135.52
0.695                   -14.6449          128.25         -42.9892         40.4431         -42.9891         40.4424       -0.0607167         135.406
0.696                   -14.8448         128.972         -42.9172         38.9873         -42.9171         38.9866       -0.0616393         135.291
0.697                    -15.036         129.744         -42.8448         37.5331         -42.8447         37.5324       -0.0625812         135.176