! TOUCHSTONE file generated by CST MICROWAVE STUDIO
! Date and time: Wed Oct 28 19:14:07 2020
! Project name: Scenario_1_Circular_Tissue_out_of_Line.cst
! Parameters = {dy1=-276.636; L_HA=400; MT=2.54; Rad_Dielectric=30; Rad_Lower=7.3; Rad_Upper=30; a_HA=580; a_WG=246; b_HA=500; b_WG=121; c_HA=0; c_WG=187; d_feed=85; dx1=693; h_feed=15; h_lower=18; h_upper=40}
! Header version: 2018
! Port assignment regex: !\s*Touchstone port\s*([0-9]+)\s*=\s*(CST MWS port|CST DS port)\s*([0-9]+|Zmin|Zmax)\s*\(\"(.*)\"\)(\s*mode\s*([0-9]+))?.*
! Touchstone port assignment:
! Touchstone port 1 = CST MWS port 1 ("")
! Touchstone port 2 = CST MWS port 2 ("")
# GHz S DB R 50
0.5                    -0.145753         -122.26         -63.9167         176.109         -63.9268         175.541      -0.00769948         151.124
0.501                   -0.14847        -122.728         -63.7804         174.478         -63.7667         173.997      -0.00775263         151.059
0.502                   -0.15155        -123.197         -63.6428         172.835         -63.6068         172.438       -0.0078067         150.993
0.503                  -0.154997        -123.667          -63.504         171.181         -63.4469         170.864      -0.00786169         150.928
0.504                   -0.15881         -124.14          -63.364         169.516         -63.2871         169.274       -0.0079176         150.863
0.505                  -0.162992        -124.613         -63.2228          167.84         -63.1275         167.669      -0.00797445         150.797
0.506                  -0.167544        -125.089         -63.0806         166.152         -62.9679         166.048      -0.00803223         150.731
0.507                  -0.172468        -125.566         -62.9372         164.453         -62.8085         164.411      -0.00809096         150.666
0.508                  -0.177765        -126.044         -62.7927         162.742         -62.6492         162.759      -0.00815065           150.6
0.509                  -0.183437        -126.524         -62.6472          161.02         -62.4901         161.091      -0.00821129         150.534
0.51                   -0.189483        -127.005         -62.5006         159.286         -62.3311         159.408      -0.00827291         150.468
0.511                  -0.195906        -127.488         -62.3531          157.54         -62.1723         157.709      -0.00833549         150.402
0.512                  -0.202706        -127.972         -62.2046         155.783         -62.0137         155.993      -0.00839906         150.336
0.513                  -0.209884        -128.458         -62.0552         154.014         -61.8553         154.263      -0.00846362          150.27
0.514                  -0.217441        -128.945         -61.9049         152.233         -61.6972         152.516      -0.00852917         150.204
0.515                  -0.225377        -129.433         -61.7537          150.44         -61.5392         150.754      -0.00859572         150.137
0.516                  -0.233693        -129.923         -61.6018         148.635         -61.3816         148.976      -0.00866329         150.071
0.517                  -0.242388        -130.414          -61.449         146.818         -61.2242         147.182      -0.00873188         150.004
0.518                  -0.251464        -130.907         -61.2955         144.989         -61.0671         145.372      -0.00880149         149.938
0.519                   -0.26092        -131.401         -61.1414         143.148         -60.9103         143.548      -0.00887214         149.871
0.52                   -0.270757        -131.896         -60.9866         141.294         -60.7539         141.707      -0.00894383         149.804
0.521                  -0.280973        -132.392         -60.8312         139.429         -60.5978         139.852      -0.00901658         149.737
0.522                   -0.29157         -132.89         -60.6753         137.551         -60.4421         137.981      -0.00909038          149.67
0.523                  -0.302546        -133.389         -60.5189         135.662         -60.2869         136.095      -0.00916526         149.603
0.524                  -0.313901        -133.889         -60.3621          133.76          -60.132         134.194      -0.00924121         149.536
0.525                  -0.325635         -134.39         -60.2049         131.846         -59.9776         132.278      -0.00931825         149.469
0.526                  -0.337746        -134.893         -60.0473          129.92         -59.8236         130.348      -0.00939638         149.402
0.527                  -0.350235        -135.397         -59.8895         127.981         -59.6702         128.403      -0.00947563         149.334
0.528                  -0.363099        -135.902         -59.7315         126.031         -59.5172         126.445      -0.00955598         149.267
0.529                  -0.376337        -136.408         -59.5733         124.069         -59.3648         124.472      -0.00963746         149.199
0.53                   -0.389949        -136.915          -59.415         122.095          -59.213         122.485      -0.00972008         149.132
0.531                  -0.403934        -137.424         -59.2567         120.108         -59.0618         120.485      -0.00980384         149.064
0.532                  -0.418289        -137.933         -59.0984          118.11         -58.9111         118.472      -0.00988875         148.996
0.533                  -0.433012        -138.444         -58.9402         116.101         -58.7611         116.445      -0.00997483         148.928
0.534                  -0.448103        -138.956         -58.7821          114.08         -58.6117         114.406       -0.0100621          148.86
0.535                   -0.46356        -139.469         -58.6242         112.047          -58.463         112.355       -0.0101505         148.792
0.536                   -0.47938        -139.983         -58.4667         110.003          -58.315         110.292       -0.0102402         148.723
0.537                  -0.495561        -140.498         -58.3094         107.948         -58.1677         108.216        -0.010331         148.655
0.538                  -0.512101        -141.015         -58.1526         105.881         -58.0212          106.13       -0.0104231         148.587
0.539                  -0.528997        -141.532         -57.9962         103.805         -57.8753         104.032       -0.0105164         148.518
0.54                   -0.546248        -142.051         -57.8404         101.717         -57.7303         101.924       -0.0106109         148.449
0.541                   -0.56385         -142.57         -57.6851         99.6191          -57.586         99.8054       -0.0107067         148.381
0.542                  -0.581802        -143.091         -57.5305         97.5111         -57.4425          97.677       -0.0108038         148.312
0.543                  -0.600099        -143.613         -57.3766         95.3932         -57.2998         95.5389       -0.0109021         148.243
0.544                  -0.618739        -144.136         -57.2235         93.2657          -57.158         93.3917       -0.0110017         148.174
0.545                   -0.63772         -144.66         -57.0712          91.129         -57.0169         91.2358       -0.0111027         148.105
0.546                  -0.657037        -145.185         -56.9197         88.9832         -56.8767         89.0715       -0.0112049         148.035
0.547                  -0.676688        -145.712         -56.7692         86.8287         -56.7374         86.8992       -0.0113085         147.966
0.548                   -0.69667        -146.239         -56.6197         84.6659         -56.5989         84.7194       -0.0114134         147.896
0.549                  -0.716978        -146.768         -56.4712         82.4951         -56.4612         82.5325       -0.0115197         147.827
0.55                    -0.73761        -147.298         -56.3238         80.3167         -56.3244         80.3389       -0.0116273         147.757
0.551                  -0.758561        -147.829         -56.1775          78.131         -56.1885         78.1389       -0.0117363         147.687
0.552                  -0.779829        -148.361         -56.0323         75.9384         -56.0535          75.933       -0.0118468         147.617
0.553                  -0.801409        -148.894         -55.8883         73.7393         -55.9193         73.7216       -0.0119586         147.547
0.554                  -0.823298        -149.429         -55.7456         71.5341          -55.786          71.505       -0.0120719         147.477
0.555                  -0.845492        -149.965         -55.6042         69.3232         -55.6535         69.2838       -0.0121866         147.406
0.556                  -0.867986        -150.502          -55.464          67.107         -55.5219         67.0582       -0.0123027         147.336
0.557                  -0.890777        -151.041         -55.3251          64.886         -55.3912         64.8286       -0.0124204         147.265
0.558                  -0.913862        -151.581         -55.1876         62.6606         -55.2613         62.5955       -0.0125395         147.195
0.559                  -0.937235        -152.122         -55.0514         60.4311         -55.1322         60.3591       -0.0126601         147.124
0.56                   -0.960894        -152.665         -54.9166          58.198          -55.004         58.1198       -0.0127822         147.053
0.561                  -0.984834        -153.209         -54.7832         55.9617         -54.8766          55.878       -0.0129059         146.982
0.562                   -1.00905        -153.755         -54.6511         53.7226           -54.75          53.634       -0.0130312         146.911
0.563                   -1.03354        -154.302         -54.5204         51.4812         -54.6243          51.388        -0.013158         146.839
0.564                    -1.0583        -154.851         -54.3912         49.2378         -54.4993         49.1405       -0.0132864         146.768
0.565                   -1.08333        -155.402         -54.2632         46.9929         -54.3751         46.8917       -0.0134164         146.696
0.566                   -1.10862        -155.955         -54.1367         44.7467         -54.2516         44.6419        -0.013548         146.625
0.567                   -1.13416        -156.509         -54.0115         42.4997          -54.129         42.3913       -0.0136812         146.553
0.568                   -1.15997        -157.065         -53.8877         40.2523          -54.007         40.1401       -0.0138162         146.481
0.569                   -1.18602        -157.623         -53.7652         38.0047         -53.8859         37.8888       -0.0139528         146.409
0.57                    -1.21233        -158.184          -53.644         35.7574         -53.7654         35.6373       -0.0140911         146.336
0.571                   -1.23888        -158.746         -53.5241         33.5106         -53.6456          33.386       -0.0142311         146.264
0.572                   -1.26568        -159.311         -53.4055         31.2645         -53.5266         31.1351       -0.0143729         146.192
0.573                   -1.29273        -159.878         -53.2881         29.0196         -53.4082         28.8847       -0.0145164         146.119
0.574                   -1.32001        -160.447         -53.1719          26.776         -53.2905          26.635       -0.0146617         146.046
0.575                   -1.34753        -161.019         -53.0569          24.534         -53.1735         24.3861       -0.0148088         145.973
0.576                    -1.3753        -161.593          -52.943         22.2938         -53.0572         22.1382       -0.0149577           145.9
0.577                    -1.4033        -162.171         -52.8303         20.0556         -52.9415         19.8914       -0.0151084         145.827
0.578                   -1.43155        -162.751         -52.7186         17.8195         -52.8265         17.6459        -0.015261         145.753
0.579                   -1.46003        -163.334          -52.608         15.5858         -52.7121         15.4016       -0.0154155          145.68
0.58                    -1.48877         -163.92         -52.4984         13.3545         -52.5983         13.1588        -0.015572         145.606
0.581                   -1.51775         -164.51         -52.3898         11.1258         -52.4852         10.9175       -0.0157303         145.532
0.582                   -1.54698        -165.103         -52.2821         8.89976         -52.3727          8.6777       -0.0158906         145.458
0.583                   -1.57646          -165.7         -52.1753         6.67644         -52.2608         6.43955       -0.0160529         145.384
0.584                   -1.60621          -166.3         -52.0694         4.45592         -52.1495         4.20306       -0.0162172          145.31
0.585                   -1.63623        -166.905         -51.9644         2.23822         -52.0389         1.96828       -0.0163835         145.235
0.586                   -1.66654        -167.513         -51.8601       0.0233553         -51.9289       -0.264752       -0.0165518         145.161
0.587                   -1.69713        -168.126         -51.7566        -2.18867         -51.8195        -2.49602       -0.0167223         145.086
0.588                   -1.72802        -168.744         -51.6539        -4.39788         -51.7108        -4.72549       -0.0168948         145.011
0.589                   -1.75923        -169.366         -51.5518        -6.60431         -51.6026        -6.95315       -0.0170695         144.936
0.59                    -1.79078        -169.993         -51.4505        -8.80801         -51.4952        -9.17899       -0.0172463          144.86
0.591                   -1.82267        -170.625         -51.3498         -11.009         -51.3884         -11.403       -0.0174254         144.785
0.592                   -1.85494        -171.263         -51.2497        -13.2075         -51.2822        -13.6252       -0.0176066         144.709
0.593                   -1.88761        -171.907         -51.1502        -15.4034         -51.1767        -15.8455       -0.0177901         144.633
0.594                   -1.92071        -172.556         -51.0513        -17.5969         -51.0719         -18.064       -0.0179758         144.557
0.595                   -1.95426        -173.211          -50.953        -19.7881         -50.9678        -20.2807       -0.0181639         144.481
0.596                    -1.9883        -173.873         -50.8553        -21.9771         -50.8644        -22.4955       -0.0183542         144.405
0.597                   -2.02286        -174.541          -50.758        -24.1641         -50.7617        -24.7084       -0.0185469         144.328
0.598                   -2.05799        -175.216         -50.6613        -26.3492         -50.6597        -26.9195       -0.0187421         144.252
0.599                   -2.09374        -175.899         -50.5651        -28.5324         -50.5585        -29.1287       -0.0189396         144.175
0.6                     -2.13015        -176.589         -50.4694         -30.714         -50.4581        -31.3361       -0.0191396         144.098
0.601                   -2.16728        -177.286         -50.3742         -32.894         -50.3584        -33.5415        -0.019342          144.02
0.602                   -2.20519        -177.991         -50.2795        -35.0727         -50.2595        -35.7451        -0.019547         143.943
0.603                   -2.24394        -178.704         -50.1853        -37.2501         -50.1615        -37.9467       -0.0197546         143.865
0.604                   -2.28362        -179.426         -50.0916        -39.4263         -50.0643        -40.1463       -0.0199647         143.787
0.605                   -2.32428         179.844         -49.9984        -41.6016         -49.9679        -42.3439       -0.0201774         143.709
0.606                   -2.36603         179.105         -49.9057         -43.776         -49.8724        -44.5395       -0.0203928         143.631
0.607                   -2.40894         178.357         -49.8135        -45.9497         -49.7778         -46.733       -0.0206109         143.552
0.608                   -2.45312           177.6         -49.7218        -48.1228         -49.6841        -48.9243       -0.0208316         143.474
0.609                   -2.49866         176.835         -49.6307        -50.2953         -49.5914        -51.1134       -0.0210552         143.395
0.61                    -2.54568          176.06         -49.5401        -52.4673         -49.4995        -53.3002       -0.0212816         143.316
0.611                   -2.59429         175.276         -49.4501        -54.6391         -49.4087        -55.4846       -0.0215107         143.236
0.612                   -2.64461         174.482         -49.3607        -56.8105         -49.3188        -57.6665       -0.0217428         143.157
0.613                   -2.69678          173.68         -49.2719        -58.9817         -49.2299        -59.8459       -0.0219778         143.077
0.614                   -2.75091          172.87         -49.1838        -61.1527          -49.142        -62.0226       -0.0222157         142.997
0.615                   -2.80715          172.05         -49.0963        -63.3235         -49.0552        -64.1965       -0.0224567         142.917
0.616                   -2.86564         171.223         -49.0094        -65.4942         -48.9694        -66.3675       -0.0227007         142.836
0.617                   -2.92651         170.388         -48.9233        -67.6647         -48.8846        -68.5355       -0.0229477         142.755
0.618                    -2.9899         169.545         -48.8379         -69.835         -48.8009        -70.7002       -0.0231979         142.674
0.619                   -3.05596         168.697         -48.7533        -72.0051         -48.7183        -72.8617       -0.0234513         142.593
0.62                    -3.12483         167.842         -48.6695        -74.1749         -48.6367        -75.0197       -0.0237079         142.512
0.621                   -3.19663         166.983         -48.5864        -76.3443         -48.5563         -77.174       -0.0239678          142.43
0.622                   -3.27149         166.119         -48.5042        -78.5133         -48.4769        -79.3246        -0.024231         142.348
0.623                   -3.34952         165.253         -48.4229        -80.6816         -48.3986        -81.4712       -0.0244976         142.266
0.624                   -3.43083         164.386         -48.3425        -82.8492         -48.3214        -83.6137       -0.0247677         142.184
0.625                    -3.5155         163.518         -48.2629        -85.0159         -48.2453        -85.7518       -0.0250412         142.101
0.626                   -3.60361         162.651         -48.1843        -87.1815         -48.1703        -87.8855       -0.0253183         142.018
0.627                    -3.6952         161.786         -48.1067        -89.3458         -48.0964        -90.0144       -0.0255989         141.935
0.628                   -3.79031         160.926         -48.0301        -91.5087         -48.0235        -92.1386       -0.0258833         141.852
0.629                   -3.88893         160.072         -47.9544        -93.6698         -47.9517        -94.2576       -0.0261714         141.768
0.63                    -3.99105         159.225         -47.8798        -95.8289          -47.881        -96.3715       -0.0264634         141.684
0.631                   -4.09662         158.388         -47.8061        -97.9858         -47.8113        -98.4799       -0.0267592         141.599
0.632                   -4.20555         157.561         -47.7336         -100.14         -47.7426        -100.583        -0.027059         141.515
0.633                   -4.31775         156.746          -47.662        -102.292          -47.675         -102.68       -0.0273629          141.43
0.634                   -4.43307         155.945         -47.5915         -104.44         -47.6083        -104.771       -0.0276709         141.345
0.635                   -4.55137          155.16         -47.5221        -106.585         -47.5426        -106.856       -0.0279831         141.259
0.636                   -4.67244         154.391         -47.4537        -108.726         -47.4778        -108.934       -0.0282998         141.174
0.637                    -4.7961          153.64         -47.3864        -110.863          -47.414        -111.006       -0.0286208         141.088
0.638                   -4.92211         152.909         -47.3201        -112.995          -47.351        -113.072       -0.0289465         141.001
0.639                   -5.05022         152.197         -47.2548        -115.123         -47.2889         -115.13       -0.0292768         140.915
0.64                    -5.18019         151.505         -47.1905        -117.246         -47.2276        -117.182        -0.029612         140.828
0.641                   -5.31174         150.834         -47.1273        -119.362         -47.1671        -119.226       -0.0299522          140.74
0.642                   -5.44461         150.185         -47.0649        -121.474         -47.1073        -121.264       -0.0302975         140.653
0.643                   -5.57854         149.556         -47.0036        -123.578         -47.0483        -123.294       -0.0306481         140.565
0.644                   -5.71325         148.949         -46.9431        -125.677         -46.9899        -125.316       -0.0310042         140.476
0.645                    -5.8485         148.363         -46.8835        -127.768         -46.9321        -127.331        -0.031366         140.388
0.646                   -5.98403         147.797         -46.8247        -129.853          -46.875        -129.338       -0.0317337         140.299
0.647                   -6.11962         147.251         -46.7668        -131.929         -46.8184        -131.338       -0.0321075         140.209
0.648                   -6.25506         146.723         -46.7095        -133.998         -46.7623        -133.329       -0.0324876          140.12
0.649                   -6.39015         146.214          -46.653        -136.059         -46.7067        -135.313       -0.0328744          140.03
0.65                    -6.52473         145.721         -46.5971        -138.112         -46.6514        -137.288       -0.0332681         139.939
0.651                   -6.65863         145.244         -46.5418        -140.156         -46.5965        -139.256        -0.033669         139.848
0.652                   -6.79175         144.782          -46.487        -142.191          -46.542        -141.216       -0.0340774         139.757
0.653                   -6.92397         144.332         -46.4327        -144.217         -46.4877        -143.167       -0.0344935         139.666
0.654                   -7.05522         143.895         -46.3788        -146.233         -46.4336        -145.111       -0.0349178         139.574
0.655                   -7.18543         143.469         -46.3252        -148.241         -46.3797        -147.046       -0.0353506         139.481
0.656                   -7.31458         143.052         -46.2719        -150.239         -46.3259        -148.973       -0.0357923         139.389
0.657                   -7.44264         142.643         -46.2188        -152.227         -46.2721        -150.892       -0.0362431         139.295
0.658                   -7.56962         142.242         -46.1658        -154.206         -46.2184        -152.804       -0.0367034         139.202
0.659                   -7.69555         141.846         -46.1129        -156.174         -46.1646        -154.707       -0.0371737         139.108
0.66                    -7.82046         141.454           -46.06        -158.133         -46.1107        -156.602       -0.0376542         139.013
0.661                    -7.9444         141.067          -46.007        -160.082         -46.0566         -158.49       -0.0381453         138.919
0.662                   -8.06744         140.682         -45.9539        -162.022         -46.0024         -160.37       -0.0386474         138.823
0.663                   -8.18966         140.299         -45.9005        -163.951         -45.9479        -162.242       -0.0391606         138.728
0.664                   -8.31115         139.916         -45.8468        -165.871         -45.8931        -164.106       -0.0396853         138.631
0.665                     -8.432         139.534         -45.7927        -167.782         -45.8379        -165.963       -0.0402218         138.535
0.666                   -8.55231         139.151         -45.7382        -169.683         -45.7823        -167.813       -0.0407703         138.438
0.667                   -8.67221         138.767         -45.6832        -171.574         -45.7262        -169.656       -0.0413308          138.34
0.668                   -8.79181          138.38         -45.6276        -173.457         -45.6696        -171.491       -0.0419037         138.242
0.669                   -8.91122         137.992         -45.5714         -175.33         -45.6124         -173.32        -0.042489         138.144
0.67                    -9.03059         137.601         -45.5144        -177.195         -45.5547        -175.142       -0.0430867         138.045
0.671                   -9.15003         137.206         -45.4567        -179.052         -45.4962        -176.958       -0.0436969         137.946
0.672                   -9.26969         136.808         -45.3982           179.1          -45.437        -178.767       -0.0443196         137.846
0.673                    -9.3897         136.407         -45.3387          177.26         -45.3771          179.43       -0.0449549         137.745
0.674                   -9.51019         136.001         -45.2783         175.427         -45.3163         177.633       -0.0456026         137.645
0.675                   -9.63132         135.592         -45.2169         173.601         -45.2547         175.841       -0.0462627         137.543
0.676                   -9.75322         135.178         -45.1545         171.783         -45.1921         174.055       -0.0469352         137.441
0.677                   -9.87604          134.76         -45.0909          169.97         -45.1286         172.274       -0.0476199         137.339
0.678                   -9.99992         134.339         -45.0263         168.164         -45.0641         170.498       -0.0483169         137.236
0.679                    -10.125         133.913         -44.9604         166.364         -44.9986         168.727       -0.0490261         137.133
0.68                    -10.2515         133.484         -44.8934         164.569         -44.9319          166.96       -0.0497475         137.029
0.681                   -10.3795         133.051         -44.8251         162.779         -44.8641         165.197        -0.050481         136.924
0.682                   -10.5092         132.615         -44.7555         160.993         -44.7952         163.437       -0.0512266         136.819
0.683                   -10.6407         132.176         -44.6846         159.212          -44.725         161.681       -0.0519843         136.713
0.684                   -10.7742         131.734         -44.6125         157.434         -44.6536         159.929       -0.0527543         136.607
0.685                   -10.9099         131.291         -44.5389         155.659          -44.581         158.179       -0.0535365           136.5
0.686                    -11.048         130.845         -44.4641         153.887          -44.507         156.431        -0.054331         136.393
0.687                   -11.1885         130.399         -44.3879         152.118         -44.4316         154.686        -0.055138         136.285
0.688                   -11.3318         129.953         -44.3103          150.35         -44.3549         152.942       -0.0559577         136.176
0.689                   -11.4779         129.507         -44.2314         148.583         -44.2768           151.2         -0.05679         136.067
0.69                     -11.627         129.063         -44.1511         146.818         -44.1972         149.458       -0.0576354         135.957
0.691                   -11.7794         128.621         -44.0695         145.053         -44.1163         147.717       -0.0584939         135.846
0.692                   -11.9353         128.183         -43.9866         143.289         -44.0338         145.976       -0.0593658         135.735
0.693                   -12.0948          127.75         -43.9023         141.524         -43.9499         144.234       -0.0602513         135.622
0.694                   -12.2581         127.322         -43.8168         139.759         -43.8644         142.492       -0.0611506          135.51
0.695                   -12.4255         126.902           -43.73         137.992         -43.7775         140.749       -0.0620641         135.396
0.696                   -12.5971         126.492         -43.6419         136.224          -43.689         139.003        -0.062992         135.282
0.697                   -12.7732         126.092         -43.5526         134.455         -43.5991         137.256       -0.0639346         135.167