! TOUCHSTONE file generated by CST MICROWAVE STUDIO
! Date and time: Wed Oct 28 19:34:14 2020
! Project name: Scenario_1_Circular_Tissue_out_of_Line_v2.cst
! Parameters = {dy1=-259.5; L_HA=400; MT=2.54; Rad_Dielectric=30; Rad_Lower=7.3; Rad_Upper=30; a_HA=580; a_WG=246; b_HA=500; b_WG=121; c_HA=0; c_WG=187; d_feed=85; dx1=346; h_feed=15; h_lower=18; h_upper=40}
! Header version: 2018
! Port assignment regex: !\s*Touchstone port\s*([0-9]+)\s*=\s*(CST MWS port|CST DS port)\s*([0-9]+|Zmin|Zmax)\s*\(\"(.*)\"\)(\s*mode\s*([0-9]+))?.*
! Touchstone port assignment:
! Touchstone port 1 = CST MWS port 1 ("")
! Touchstone port 2 = CST MWS port 2 ("")
# GHz S DB R 50
0.5                    -0.147672        -122.308         -62.0463         2.85372         -62.0463         2.85372      -0.00796859         151.118
0.501                  -0.148795        -122.782         -61.8098         1.24555         -61.8101         1.24845      -0.00801432         151.053
0.502                   -0.15029        -123.257         -61.5801       -0.333428         -61.5805       -0.327954      -0.00806119         150.988
0.503                  -0.152161        -123.734         -61.3567        -1.88625         -61.3573        -1.87851       -0.0081092         150.923
0.504                   -0.15441        -124.213         -61.1394        -3.41568         -61.1402        -3.40594      -0.00815835         150.857
0.505                  -0.157041        -124.694         -60.9279        -4.92421         -60.9289        -4.91271      -0.00820864         150.792
0.506                  -0.160057        -125.176          -60.722         -6.4141         -60.7232        -6.40107      -0.00826009         150.726
0.507                  -0.163461        -125.661         -60.5215         -7.8874         -60.5228        -7.87305      -0.00831268          150.66
0.508                  -0.167255        -126.146         -60.3261        -9.34599         -60.3276        -9.33049      -0.00836642         150.595
0.509                  -0.171442        -126.634         -60.1356        -10.7916         -60.1372        -10.7751      -0.00842132         150.529
0.51                   -0.176024        -127.123         -59.9498        -12.2257         -59.9515        -12.2084      -0.00847737         150.463
0.511                  -0.181006        -127.614         -59.7685        -13.6498         -59.7702        -13.6318      -0.00853458         150.397
0.512                  -0.186388        -128.107         -59.5914        -15.0652         -59.5933        -15.0467      -0.00859296         150.331
0.513                  -0.192174        -128.601         -59.4185        -16.4732         -59.4204        -16.4542       -0.0086525         150.265
0.514                  -0.198365        -129.097         -59.2495        -17.8747         -59.2515        -17.8554      -0.00871321         150.198
0.515                  -0.204965        -129.594         -59.0843        -19.2709         -59.0864        -19.2514      -0.00877509         150.132
0.516                  -0.211975        -130.093         -58.9227        -20.6627         -58.9248         -20.643      -0.00883814         150.066
0.517                  -0.219397        -130.594         -58.7645         -22.051         -58.7667        -22.0313      -0.00890236         149.999
0.518                  -0.227234        -131.096         -58.6097        -23.4366         -58.6118        -23.4169      -0.00896777         149.933
0.519                  -0.235488          -131.6          -58.458        -24.8203         -58.4601        -24.8006      -0.00903435         149.866
0.52                    -0.24416        -132.105         -58.3093        -26.2028         -58.3115        -26.1832      -0.00910212         149.799
0.521                  -0.253252        -132.611         -58.1635        -27.5847         -58.1657        -27.5653      -0.00917107         149.732
0.522                  -0.262766        -133.119         -58.0205        -28.9667         -58.0227        -28.9476      -0.00924121         149.665
0.523                  -0.272703        -133.629         -57.8801        -30.3494         -57.8823        -30.3305      -0.00931255         149.598
0.524                  -0.283065         -134.14         -57.7423        -31.7332         -57.7445        -31.7146      -0.00938508         149.531
0.525                  -0.293854        -134.652         -57.6068        -33.1187          -57.609        -33.1004       -0.0094588         149.464
0.526                   -0.30507        -135.166         -57.4737        -34.5063         -57.4759        -34.4885      -0.00953373         149.397
0.527                  -0.316716        -135.681         -57.3428        -35.8966          -57.345        -35.8792      -0.00960987         149.329
0.528                  -0.328791        -136.197          -57.214        -37.2899         -57.2161        -37.2729      -0.00968721         149.262
0.529                  -0.341298        -136.715         -57.0872        -38.6866         -57.0893          -38.67      -0.00976576         149.194
0.53                   -0.354237        -137.234         -56.9623         -40.087         -56.9644         -40.071      -0.00984553         149.127
0.531                  -0.367609        -137.755         -56.8393        -41.4916         -56.8412         -41.476      -0.00992652         149.059
0.532                  -0.381415        -138.276         -56.7179        -42.9006         -56.7199        -42.8855       -0.0100087         148.991
0.533                  -0.395656        -138.799         -56.5982        -44.3144         -56.6001        -44.2998       -0.0100922         148.923
0.534                  -0.410332        -139.324         -56.4801        -45.7331         -56.4819        -45.7191       -0.0101768         148.855
0.535                  -0.425444        -139.849         -56.3634        -47.1572         -56.3652        -47.1436       -0.0102627         148.787
0.536                  -0.440991        -140.376         -56.2481        -48.5867         -56.2499        -48.5737       -0.0103499         148.719
0.537                  -0.456976        -140.904         -56.1342         -50.022         -56.1359        -50.0095       -0.0104383          148.65
0.538                  -0.473397        -141.433         -56.0215        -51.4632         -56.0231        -51.4513       -0.0105279         148.582
0.539                  -0.490255        -141.963         -55.9099        -52.9106         -55.9115        -52.8993       -0.0106188         148.513
0.54                    -0.50755        -142.494         -55.7995        -54.3643          -55.801        -54.3535       -0.0107109         148.445
0.541                  -0.525283        -143.027         -55.6901        -55.8245         -55.6915        -55.8142       -0.0108044         148.376
0.542                  -0.543452        -143.561         -55.5816        -57.2913          -55.583        -57.2816       -0.0108991         148.307
0.543                  -0.562059        -144.095         -55.4741        -58.7649         -55.4754        -58.7557        -0.010995         148.238
0.544                  -0.581102        -144.631         -55.3674        -60.2454         -55.3686        -60.2367       -0.0110923         148.169
0.545                  -0.600582        -145.168         -55.2614        -61.7329         -55.2626        -61.7247       -0.0111908           148.1
0.546                  -0.620498        -145.707         -55.1562        -63.2274         -55.1572        -63.2198       -0.0112906          148.03
0.547                   -0.64085        -146.246         -55.0515        -64.7292         -55.0526         -64.722       -0.0113918         147.961
0.548                  -0.661637        -146.786         -54.9475        -66.2381         -54.9485        -66.2315       -0.0114942         147.892
0.549                  -0.682859        -147.328          -54.844        -67.7544         -54.8449        -67.7483        -0.011598         147.822
0.55                   -0.704514         -147.87          -54.741         -69.278         -54.7418        -69.2723       -0.0117031         147.752
0.551                  -0.726604        -148.414         -54.6384         -70.809         -54.6392        -70.8038       -0.0118096         147.682
0.552                  -0.749126        -148.958         -54.5362        -72.3474         -54.5369        -72.3426       -0.0119173         147.612
0.553                   -0.77208        -149.504         -54.4343        -73.8931         -54.4349        -73.8888       -0.0120265         147.542
0.554                  -0.795466        -150.051         -54.3327        -75.4463         -54.3332        -75.4424        -0.012137         147.472
0.555                  -0.819282        -150.598         -54.2313        -77.0068         -54.2317        -77.0033       -0.0122488         147.402
0.556                  -0.843527        -151.147           -54.13        -78.5747         -54.1304        -78.5715       -0.0123621         147.331
0.557                  -0.868201        -151.697         -54.0289        -80.1499         -54.0293        -80.1471       -0.0124768         147.261
0.558                  -0.893303        -152.248         -53.9279        -81.7324         -53.9282        -81.7299       -0.0125928          147.19
0.559                  -0.918832          -152.8          -53.827         -83.322         -53.8272        -83.3199       -0.0127103         147.119
0.56                   -0.944787        -153.353         -53.7261        -84.9188         -53.7262        -84.9171       -0.0128292         147.048
0.561                  -0.971166        -153.907         -53.6251        -86.5227         -53.6252        -86.5212       -0.0129495         146.977
0.562                   -0.99797        -154.462         -53.5241        -88.1335         -53.5241        -88.1324       -0.0130713         146.906
0.563                    -1.0252        -155.019          -53.423        -89.7513          -53.423        -89.7503       -0.0131946         146.834
0.564                   -1.05284        -155.576         -53.3218        -91.3757         -53.3217        -91.3751       -0.0133194         146.763
0.565                   -1.08091        -156.135         -53.2204        -93.0069         -53.2203        -93.0065       -0.0134456         146.691
0.566                    -1.1094        -156.694         -53.1188        -94.6446         -53.1187        -94.6444       -0.0135734          146.62
0.567                   -1.13831        -157.255         -53.0171        -96.2886         -53.0169        -96.2887       -0.0137027         146.548
0.568                   -1.16764        -157.817         -52.9151         -97.939         -52.9148        -97.9392       -0.0138335         146.476
0.569                   -1.19739         -158.38         -52.8128        -99.5955         -52.8125        -99.5959       -0.0139659         146.404
0.57                    -1.22755        -158.944         -52.7103        -101.258           -52.71        -101.258       -0.0140999         146.331
0.571                   -1.25813         -159.51         -52.6075        -102.926         -52.6072        -102.927       -0.0142355         146.259
0.572                   -1.28912        -160.077         -52.5044          -104.6          -52.504        -104.601       -0.0143726         146.186
0.573                   -1.32053        -160.645          -52.401        -106.279         -52.4006         -106.28       -0.0145114         146.114
0.574                   -1.35235        -161.214         -52.2972        -107.964         -52.2968        -107.965       -0.0146519         146.041
0.575                   -1.38459        -161.785         -52.1932        -109.654         -52.1927        -109.655        -0.014794         145.968
0.576                   -1.41724        -162.357         -52.0887        -111.349         -52.0882         -111.35       -0.0149379         145.895
0.577                    -1.4503         -162.93         -51.9839        -113.048         -51.9834         -113.05       -0.0150834         145.821
0.578                   -1.48378        -163.505         -51.8788        -114.752         -51.8782        -114.754       -0.0152307         145.748
0.579                   -1.51767        -164.081         -51.7733        -116.461         -51.7727        -116.462       -0.0153797         145.674
0.58                    -1.55197        -164.658         -51.6674        -118.173         -51.6668        -118.175       -0.0155305         145.601
0.581                   -1.58669        -165.238         -51.5612         -119.89         -51.5606        -119.892       -0.0156832         145.527
0.582                   -1.62182        -165.818         -51.4546         -121.61          -51.454        -121.612       -0.0158376         145.453
0.583                   -1.65737        -166.401         -51.3477        -123.334         -51.3471        -123.336       -0.0159939         145.378
0.584                   -1.69334        -166.985         -51.2404        -125.062         -51.2398        -125.063       -0.0161521         145.304
0.585                   -1.72972         -167.57         -51.1329        -126.793         -51.1322        -126.794       -0.0163122         145.229
0.586                   -1.76652        -168.158          -51.025        -128.526         -51.0243        -128.528       -0.0164743         145.155
0.587                   -1.80374        -168.747         -50.9168        -130.263         -50.9161        -130.264       -0.0166383          145.08
0.588                   -1.84139        -169.338         -50.8083        -132.002         -50.8076        -132.003       -0.0168043         145.005
0.589                   -1.87946        -169.931         -50.6995        -133.743         -50.6989        -133.745       -0.0169723          144.93
0.59                    -1.91796        -170.526         -50.5905        -135.487         -50.5898        -135.488       -0.0171424         144.854
0.591                   -1.95688        -171.123         -50.4812        -137.233         -50.4806        -137.234       -0.0173145         144.779
0.592                   -1.99624        -171.722         -50.3717         -138.98         -50.3711        -138.982       -0.0174888         144.703
0.593                   -2.03604        -172.323          -50.262         -140.73         -50.2615        -140.731       -0.0176652         144.627
0.594                   -2.07628        -172.927         -50.1522         -142.48         -50.1516        -142.482       -0.0178438         144.551
0.595                   -2.11696        -173.533         -50.0422        -144.232         -50.0416        -144.234       -0.0180247         144.475
0.596                   -2.15809        -174.141         -49.9321        -145.986         -49.9315        -145.987       -0.0182078         144.398
0.597                   -2.19968        -174.752         -49.8218         -147.74         -49.8213        -147.741       -0.0183932         144.322
0.598                   -2.24173        -175.365         -49.7115        -149.495          -49.711        -149.496       -0.0185809         144.245
0.599                   -2.28425        -175.981         -49.6012        -151.251         -49.6007        -151.251        -0.018771         144.168
0.6                     -2.32724        -176.599         -49.4908        -153.007         -49.4904        -153.008       -0.0189635         144.091
0.601                   -2.37071        -177.221         -49.3805        -154.763           -49.38        -154.764       -0.0191584         144.013
0.602                   -2.41467        -177.845         -49.2702         -156.52         -49.2698         -156.52       -0.0193559         143.936
0.603                   -2.45912        -178.472         -49.1599        -158.276         -49.1595        -158.277       -0.0195558         143.858
0.604                   -2.50409        -179.102         -49.0498        -160.033         -49.0494        -160.034       -0.0197584          143.78
0.605                   -2.54957        -179.736         -48.9397        -161.789         -48.9394         -161.79       -0.0199636         143.702
0.606                   -2.59558         179.627         -48.8299        -163.545         -48.8296        -163.546       -0.0201714         143.624
0.607                   -2.64214         178.987         -48.7202          -165.3         -48.7199        -165.301        -0.020382         143.545
0.608                   -2.68924         178.343         -48.6108        -167.055         -48.6105        -167.055       -0.0205953         143.466
0.609                   -2.73691         177.696         -48.5015        -168.809         -48.5013        -168.809       -0.0208114         143.387
0.61                    -2.78516         177.045         -48.3926        -170.562         -48.3924        -170.562       -0.0210304         143.308
0.611                   -2.83401          176.39          -48.284        -172.314         -48.2838        -172.314       -0.0212523         143.229
0.612                   -2.88347         175.731         -48.1757        -174.065         -48.1756        -174.065       -0.0214772         143.149
0.613                   -2.93357         175.068         -48.0678        -175.814         -48.0677        -175.814       -0.0217051         143.069
0.614                   -2.98431         174.401         -47.9603        -177.563         -47.9602        -177.563       -0.0219361         142.989
0.615                   -3.03572         173.729         -47.8532         -179.31         -47.8531        -179.309       -0.0221702         142.909
0.616                   -3.08783         173.053         -47.7465         178.945         -47.7465         178.945       -0.0224075         142.828
0.617                   -3.14065         172.372         -47.6404         177.202         -47.6403         177.202       -0.0226481         142.748
0.618                   -3.19422         171.687         -47.5347          175.46         -47.5347          175.46       -0.0228919         142.667
0.619                   -3.24855         170.996         -47.4295          173.72         -47.4296          173.72       -0.0231392         142.585
0.62                    -3.30367         170.301         -47.3249         171.981          -47.325         171.982       -0.0233899         142.504
0.621                   -3.35963           169.6         -47.2209         170.245          -47.221         170.246       -0.0236441         142.422
0.622                   -3.41643         168.894         -47.1175         168.511         -47.1176         168.511       -0.0239018          142.34
0.623                   -3.47413         168.183         -47.0147         166.779         -47.0148          166.78       -0.0241632         142.258
0.624                   -3.53276         167.466         -46.9126          165.05         -46.9127          165.05       -0.0244284         142.175
0.625                   -3.59236         166.743         -46.8111         163.322         -46.8112         163.323       -0.0246973         142.093
0.626                   -3.65296         166.014         -46.7102         161.597         -46.7104         161.598         -0.02497          142.01
0.627                   -3.71461         165.279         -46.6101         159.875         -46.6103         159.875       -0.0252467         141.926
0.628                   -3.77736         164.538         -46.5107         158.154         -46.5109         158.155       -0.0255274         141.843
0.629                   -3.84125         163.791          -46.412         156.437         -46.4122         156.437       -0.0258122         141.759
0.63                    -3.90634         163.037         -46.3141         154.722         -46.3143         154.723       -0.0261012         141.675
0.631                   -3.97268         162.277         -46.2169          153.01         -46.2171         153.011       -0.0263944         141.591
0.632                   -4.04033         161.509         -46.1205         151.301         -46.1207         151.301       -0.0266919         141.506
0.633                   -4.10935         160.735         -46.0249         149.594         -46.0251         149.595       -0.0269939         141.421
0.634                   -4.17981         159.954         -45.9301          147.89         -45.9303         147.891       -0.0273004         141.336
0.635                   -4.25177         159.166          -45.836         146.189         -45.8363          146.19       -0.0276115         141.251
0.636                   -4.32531         158.371         -45.7428         144.492          -45.743         144.492       -0.0279274         141.165
0.637                    -4.4005         157.568         -45.6504         142.797         -45.6506         142.797        -0.028248         141.079
0.638                   -4.47743         156.758         -45.5588         141.105          -45.559         141.106       -0.0285735         140.992
0.639                   -4.55618          155.94          -45.468         139.416         -45.4682         139.417        -0.028904         140.906
0.64                    -4.63683         155.115          -45.378         137.731         -45.3783         137.731       -0.0292396         140.819
0.641                   -4.71949         154.283         -45.2889         136.048         -45.2891         136.049       -0.0295804         140.731
0.642                   -4.80426         153.443         -45.2006         134.369         -45.2008          134.37       -0.0299266         140.644
0.643                   -4.89122         152.595         -45.1131         132.693         -45.1133         132.694       -0.0302782         140.556
0.644                   -4.98051          151.74         -45.0264          131.02         -45.0266         131.021       -0.0306353         140.467
0.645                   -5.07223         150.878         -44.9405         129.351         -44.9408         129.351       -0.0309981         140.379
0.646                   -5.16649         150.008         -44.8555         127.685         -44.8557         127.685       -0.0313667          140.29
0.647                   -5.26343         149.132         -44.7713         126.022         -44.7715         126.022       -0.0317412         140.201
0.648                   -5.36318         148.248         -44.6878         124.362          -44.688         124.363       -0.0321217         140.111
0.649                   -5.46587         147.358         -44.6052         122.706         -44.6054         122.707       -0.0325084         140.021
0.65                    -5.57165         146.461         -44.5233         121.054         -44.5235         121.054       -0.0329014         139.931
0.651                   -5.68065         145.558         -44.4422         119.404         -44.4424         119.405       -0.0333008          139.84
0.652                   -5.79303          144.65         -44.3619         117.758         -44.3621         117.759       -0.0337068         139.749
0.653                   -5.90896         143.736         -44.2823         116.116         -44.2825         116.116       -0.0341196         139.657
0.654                   -6.02858         142.818         -44.2035         114.477         -44.2036         114.477       -0.0345392         139.565
0.655                   -6.15207         141.896         -44.1253         112.841         -44.1255         112.842       -0.0349658         139.473
0.656                   -6.27959          140.97         -44.0479         111.209         -44.0481         111.209       -0.0353997         139.381
0.657                   -6.41133         140.042         -43.9712          109.58         -43.9714         109.581       -0.0358408         139.288
0.658                   -6.54745         139.112         -43.8952         107.955         -43.8953         107.955       -0.0362895         139.194
0.659                   -6.68813         138.182         -43.8198         106.333         -43.8199         106.333       -0.0367459           139.1
0.66                    -6.83356         137.252         -43.7451         104.714         -43.7452         104.714       -0.0372101         139.006
0.661                   -6.98391         136.324          -43.671         103.099          -43.671         103.099       -0.0376824         138.911
0.662                   -7.13937         135.398         -43.5975         101.487         -43.5975         101.487       -0.0381629         138.816
0.663                   -7.30011         134.478         -43.5245         99.8784         -43.5246         99.8786       -0.0386517         138.721
0.664                   -7.46631         133.563         -43.4522         98.2731         -43.4522         98.2733       -0.0391492         138.625
0.665                   -7.63813         132.657         -43.3804         96.6712         -43.3804         96.6713       -0.0396555         138.528
0.666                   -7.81575          131.76         -43.3091         95.0725         -43.3091         95.0726       -0.0401708         138.432
0.667                   -7.99932         130.875         -43.2383         93.4771         -43.2383         93.4771       -0.0406953         138.334
0.668                   -8.18897         130.005          -43.168         91.8848         -43.1679         91.8849       -0.0412293         138.236
0.669                   -8.38484         129.151         -43.0981         90.2957          -43.098         90.2958       -0.0417729         138.138
0.67                    -8.58705         128.316         -43.0286         88.7098         -43.0286         88.7098       -0.0423264         138.039
0.671                   -8.79569         127.504         -42.9596          87.127         -42.9595         87.1269       -0.0428901          137.94
0.672                   -9.01084         126.717         -42.8909         85.5472         -42.8909         85.5471       -0.0434641          137.84
0.673                   -9.23255         125.958         -42.8226         83.9704         -42.8225         83.9704       -0.0440487          137.74
0.674                   -9.46083         125.231         -42.7546         82.3967         -42.7545         82.3966       -0.0446442          137.64
0.675                   -9.69567         124.538          -42.687         80.8258         -42.6869         80.8257       -0.0452508         137.538
0.676                   -9.93703         123.885         -42.6196         79.2579         -42.6194         79.2577       -0.0458689         137.436
0.677                   -10.1848         123.275         -42.5524         77.6927         -42.5523         77.6926       -0.0464986         137.334
0.678                   -10.4389         122.712         -42.4855         76.1304         -42.4853         76.1302       -0.0471403         137.231
0.679                    -10.699           122.2         -42.4187         74.5708         -42.4186         74.5706       -0.0477943         137.128
0.68                    -10.9649         121.744         -42.3522         73.0139          -42.352         73.0137       -0.0484609         137.024
0.681                   -11.2364         121.348         -42.2857         71.4596         -42.2855         71.4594       -0.0491404         136.919
0.682                    -11.513         121.017         -42.2194         69.9079         -42.2192         69.9077       -0.0498331         136.814
0.683                   -11.7942         120.755         -42.1532         68.3588          -42.153         68.3585       -0.0505393         136.708
0.684                   -12.0795         120.568          -42.087         66.8121         -42.0868         66.8117       -0.0512595         136.602
0.685                   -12.3682         120.459         -42.0208         65.2678         -42.0206         65.2674       -0.0519939         136.495
0.686                   -12.6596         120.433         -41.9547         63.7259         -41.9545         63.7255       -0.0527429         136.387
0.687                   -12.9528         120.495         -41.8885         62.1862         -41.8883         62.1859       -0.0535069         136.279
0.688                   -13.2469         120.648         -41.8223         60.6488         -41.8221         60.6485       -0.0542863          136.17
0.689                   -13.5406         120.895          -41.756         59.1136         -41.7558         59.1133       -0.0550814         136.061
0.69                    -13.8329          121.24         -41.6896         57.5806         -41.6894         57.5802       -0.0558928         135.951
0.691                   -14.1225         121.685          -41.623         56.0496         -41.6228         56.0492       -0.0567208          135.84
0.692                   -14.4078         122.231         -41.5563         54.5206         -41.5561         54.5202       -0.0575658         135.728
0.693                   -14.6875         122.878         -41.4894         52.9936         -41.4892         52.9932       -0.0584283         135.616
0.694                   -14.9599         123.625         -41.4222         51.4685          -41.422         51.4681       -0.0593087         135.503
0.695                   -15.2235         124.469         -41.3549         49.9452         -41.3547         49.9448       -0.0602077         135.389
0.696                   -15.4766         125.408         -41.2872         48.4238          -41.287         48.4233       -0.0611255         135.275
0.697                   -15.7175         126.434         -41.2192         46.9041         -41.2191         46.9036       -0.0620628          135.16