! TOUCHSTONE file generated by CST MICROWAVE STUDIO
! Date and time: Fri Oct 30 07:49:33 2020
! Project name: Scenario_1_Circular_Tissue_out_of_Line.cst
! Parameters = {dy1=-259.295; L_HA=400; MT=2.54; Rad_Dielectric=30; Rad_Lower=7.3; Rad_Upper=30; a_HA=580; a_WG=246; b_HA=500; b_WG=121; c_HA=0; c_WG=187; d_feed=85; dx1=520; h_feed=15; h_lower=18; h_upper=40}
! Header version: 2018
! Port assignment regex: !\s*Touchstone port\s*([0-9]+)\s*=\s*(CST MWS port|CST DS port)\s*([0-9]+|Zmin|Zmax)\s*\(\"(.*)\"\)(\s*mode\s*([0-9]+))?.*
! Touchstone port assignment:
! Touchstone port 1 = CST MWS port 1 ("")
! Touchstone port 2 = CST MWS port 2 ("")
# GHz S DB R 50
0.5                    -0.144175         -122.49         -63.2285        -76.9853         -63.2285        -76.9853      -0.00730729         151.125
0.501                  -0.140623        -122.947         -63.2052        -78.5793          -63.206        -78.5822      -0.00737726          151.06
0.502                  -0.137395        -123.408         -63.1793        -80.1913         -63.1808        -80.1971      -0.00744798         150.994
0.503                  -0.134496        -123.872         -63.1506        -81.8211         -63.1529        -81.8299      -0.00751944         150.929
0.504                  -0.131933        -124.338         -63.1191        -83.4683         -63.1221        -83.4803      -0.00759165         150.863
0.505                  -0.129713        -124.807         -63.0847        -85.1328         -63.0884         -85.148      -0.00766462         150.798
0.506                  -0.127841        -125.279         -63.0473        -86.8142         -63.0516        -86.8327      -0.00773836         150.732
0.507                  -0.126324        -125.753         -63.0068        -88.5121         -63.0118         -88.534      -0.00781285         150.666
0.508                  -0.125169        -126.231         -62.9631        -90.2261         -62.9687        -90.2515      -0.00788812           150.6
0.509                  -0.124382        -126.711         -62.9162        -91.9558         -62.9224        -91.9848      -0.00796416         150.535
0.51                   -0.123969        -127.194         -62.8659        -93.7007         -62.8728        -93.7334      -0.00804099         150.469
0.511                  -0.123937         -127.68         -62.8123        -95.4604         -62.8197        -95.4967       -0.0081186         150.403
0.512                  -0.124292        -128.169         -62.7552        -97.2344         -62.7631        -97.2744      -0.00819701         150.336
0.513                  -0.125041         -128.66         -62.6947        -99.0221         -62.7031        -99.0658      -0.00827622          150.27
0.514                   -0.12619        -129.154         -62.6305        -100.823         -62.6394         -100.87      -0.00835623         150.204
0.515                  -0.127745        -129.651         -62.5628        -102.636         -62.5721        -102.688      -0.00843705         150.138
0.516                  -0.129714        -130.151         -62.4914        -104.462         -62.5012        -104.517      -0.00851869         150.071
0.517                  -0.132103        -130.653         -62.4163        -106.298         -62.4265        -106.357      -0.00860115         150.005
0.518                  -0.134917        -131.158         -62.3375        -108.146         -62.3481        -108.208      -0.00868445         149.938
0.519                  -0.138164        -131.665          -62.255        -110.003         -62.2659        -110.069      -0.00876858         149.871
0.52                   -0.141849        -132.176         -62.1687         -111.87         -62.1799         -111.94      -0.00885355         149.805
0.521                   -0.14598        -132.689         -62.0787        -113.746         -62.0902        -113.819      -0.00893938         149.738
0.522                  -0.150562        -133.204         -61.9849         -115.63         -61.9967        -115.707      -0.00902607         149.671
0.523                  -0.155602        -133.722         -61.8874        -117.521         -61.8995        -117.602      -0.00911362         149.604
0.524                  -0.161107        -134.243         -61.7862        -119.419         -61.7984        -119.503      -0.00920204         149.537
0.525                  -0.167081        -134.766         -61.6813        -121.324         -61.6937        -121.411      -0.00929135         149.469
0.526                  -0.173532        -135.292         -61.5727        -123.234         -61.5853        -123.325      -0.00938155         149.402
0.527                  -0.180466         -135.82         -61.4605        -125.149         -61.4732        -125.243      -0.00947264         149.335
0.528                  -0.187888        -136.351         -61.3447        -127.069         -61.3575        -127.166      -0.00956464         149.267
0.529                  -0.195806        -136.884         -61.2254        -128.993         -61.2382        -129.092      -0.00965755           149.2
0.53                   -0.204223         -137.42         -61.1026         -130.92         -61.1155        -131.022      -0.00975139         149.132
0.531                  -0.213148        -137.958         -60.9763        -132.851         -60.9893        -132.955      -0.00984616         149.064
0.532                  -0.222585        -138.499         -60.8468        -134.784         -60.8597         -134.89      -0.00994187         148.996
0.533                   -0.23254        -139.042         -60.7139        -136.719         -60.7269        -136.828       -0.0100385         148.928
0.534                  -0.243019        -139.587         -60.5779        -138.655         -60.5908        -138.766       -0.0101362          148.86
0.535                  -0.254027        -140.135         -60.4388        -140.593         -60.4517        -140.706       -0.0102347         148.792
0.536                   -0.26557        -140.684         -60.2966        -142.533         -60.3094        -142.647       -0.0103343         148.724
0.537                  -0.277653        -141.237         -60.1515        -144.473         -60.1643        -144.589       -0.0104349         148.656
0.538                  -0.290282        -141.791         -60.0036        -146.413         -60.0163        -146.531       -0.0105364         148.587
0.539                  -0.303462        -142.347         -59.8529        -148.354         -59.8656        -148.473        -0.010639         148.519
0.54                   -0.317198        -142.906         -59.6997        -150.295         -59.7122        -150.415       -0.0107426          148.45
0.541                  -0.331494        -143.467         -59.5439        -152.237         -59.5563        -152.357       -0.0108472         148.381
0.542                  -0.346357         -144.03         -59.3857        -154.178         -59.3979        -154.299       -0.0109529         148.312
0.543                   -0.36179        -144.595         -59.2251        -156.119         -59.2373        -156.241       -0.0110596         148.243
0.544                  -0.377798        -145.162         -59.0624         -158.06         -59.0744        -158.182       -0.0111674         148.174
0.545                  -0.394386        -145.731         -58.8976        -160.002         -58.9095        -160.124       -0.0112763         148.105
0.546                  -0.411558        -146.302         -58.7308        -161.943         -58.7425        -162.065       -0.0113863         148.036
0.547                  -0.429319        -146.875         -58.5621        -163.884         -58.5737        -164.006       -0.0114974         147.967
0.548                  -0.447672         -147.45         -58.3917        -165.826         -58.4031        -165.947       -0.0116095         147.897
0.549                  -0.466622        -148.026         -58.2196        -167.768         -58.2309        -167.888       -0.0117229         147.827
0.55                   -0.486172        -148.605          -58.046         -169.71         -58.0572         -169.83       -0.0118373         147.758
0.551                  -0.506327        -149.185          -57.871        -171.653          -57.882        -171.772        -0.011953         147.688
0.552                   -0.52709        -149.767         -57.6947        -173.597         -57.7055        -173.715       -0.0120698         147.618
0.553                  -0.548464        -150.351         -57.5172        -175.542         -57.5279        -175.659       -0.0121878         147.548
0.554                  -0.570454        -150.936         -57.3387        -177.488         -57.3492        -177.604        -0.012307         147.478
0.555                  -0.593061        -151.523         -57.1592        -179.436         -57.1695         -179.55       -0.0124274         147.407
0.556                   -0.61629        -152.112         -56.9788         178.614          -56.989         178.502       -0.0125491         147.337
0.557                  -0.640142        -152.702         -56.7977         176.662         -56.8078         176.551        -0.012672         147.267
0.558                  -0.664622        -153.294         -56.6161         174.708          -56.626         174.599       -0.0127961         147.196
0.559                  -0.689731        -153.887         -56.4339         172.751         -56.4437         172.644       -0.0129216         147.125
0.56                   -0.715473        -154.481         -56.2513         170.791         -56.2609         170.686       -0.0130483         147.054
0.561                  -0.741849        -155.078         -56.0685         168.828          -56.078         168.725       -0.0131764         146.983
0.562                  -0.768861        -155.675         -55.8855         166.861         -55.8948          166.76       -0.0133058         146.912
0.563                  -0.796513        -156.274         -55.7025          164.89         -55.7116         164.792       -0.0134366         146.841
0.564                  -0.824805        -156.874         -55.5195         162.915         -55.5285          162.82       -0.0135687         146.769
0.565                   -0.85374        -157.475         -55.3368         160.936         -55.3456         160.843       -0.0137022         146.698
0.566                   -0.88332        -158.078         -55.1543         158.953         -55.1629         158.862       -0.0138372         146.626
0.567                  -0.913545        -158.682         -54.9722         156.964         -54.9807         156.876       -0.0139735         146.554
0.568                  -0.944418        -159.287         -54.7907         154.971          -54.799         154.885       -0.0141113         146.483
0.569                   -0.97594        -159.893         -54.6098         152.972         -54.6179         152.889       -0.0142506          146.41
0.57                    -1.00811          -160.5         -54.4296         150.968         -54.4376         150.888       -0.0143914         146.338
0.571                   -1.04093        -161.108         -54.2503         148.958         -54.2581         148.881       -0.0145337         146.266
0.572                   -1.07441        -161.718          -54.072         146.942         -54.0796         146.868       -0.0146775         146.193
0.573                   -1.10854        -162.328         -53.8947         144.921         -53.9022          144.85       -0.0148229         146.121
0.574                   -1.14332        -162.939         -53.7187         142.894         -53.7259         142.825       -0.0149699         146.048
0.575                   -1.17875        -163.552         -53.5439          140.86          -53.551         140.795       -0.0151185         145.975
0.576                   -1.21484        -164.165         -53.3705         138.821         -53.3774         138.759       -0.0152687         145.902
0.577                   -1.25159        -164.779         -53.1987         136.776         -53.2054         136.717       -0.0154205         145.829
0.578                   -1.28899        -165.394         -53.0284         134.725         -53.0349         134.669       -0.0155741         145.756
0.579                   -1.32705         -166.01         -52.8599         132.668         -52.8662         132.615       -0.0157293         145.682
0.58                    -1.36577        -166.626         -52.6932         130.606         -52.6992         130.555       -0.0158863         145.608
0.581                   -1.40514        -167.243         -52.5283         128.538         -52.5342          128.49        -0.016045         145.535
0.582                   -1.44516        -167.862         -52.3655         126.465         -52.3712          126.42       -0.0162056         145.461
0.583                   -1.48585         -168.48         -52.2048         124.386         -52.2102         124.344       -0.0163679         145.387
0.584                   -1.52719          -169.1         -52.0462         122.303         -52.0514         122.264       -0.0165321         145.312
0.585                   -1.56919         -169.72           -51.89         120.215         -51.8949         120.179       -0.0166982         145.238
0.586                   -1.61184        -170.341          -51.736         118.123         -51.7407         118.089       -0.0168661         145.163
0.587                   -1.65516        -170.963         -51.5844         116.028         -51.5889         115.996        -0.017036         145.089
0.588                   -1.69912        -171.585         -51.4354         113.929         -51.4396           113.9       -0.0172079         145.014
0.589                   -1.74375        -172.208         -51.2888         111.827         -51.2928           111.8       -0.0173818         144.939
0.59                    -1.78903        -172.832         -51.1449         109.722         -51.1485         109.698       -0.0175576         144.863
0.591                   -1.83497        -173.456         -51.0035         107.616          -51.007         107.594       -0.0177356         144.788
0.592                   -1.88156        -174.081         -50.8649         105.508         -50.8681         105.488       -0.0179157         144.712
0.593                   -1.92882        -174.706          -50.729         103.399         -50.7319         103.382       -0.0180979         144.637
0.594                   -1.97672        -175.332         -50.5958          101.29         -50.5985         101.275       -0.0182822         144.561
0.595                   -2.02529        -175.958         -50.4654          99.181         -50.4678         99.1678       -0.0184688         144.485
0.596                   -2.07451        -176.586         -50.3378          97.073         -50.3399         97.0615       -0.0186576         144.408
0.597                   -2.12439        -177.213          -50.213         94.9663         -50.2149         94.9567       -0.0188487         144.332
0.598                   -2.17493        -177.841          -50.091         92.8618         -50.0926         92.8538       -0.0190421         144.255
0.599                   -2.22613         -178.47         -49.9717         90.7598         -49.9731         90.7534       -0.0192379         144.178
0.6                     -2.27799          -179.1         -49.8553         88.6612         -49.8563         88.6562       -0.0194361         144.101
0.601                    -2.3305         -179.73         -49.7415         86.5664         -49.7424         86.5628       -0.0196367         144.024
0.602                   -2.38368          179.64         -49.6305         84.4761         -49.6311         84.4737       -0.0198399         143.947
0.603                   -2.43752         179.009         -49.5222         82.3909         -49.5226         82.3896       -0.0200455         143.869
0.604                   -2.49203         178.377         -49.4165         80.3113         -49.4167         80.3111       -0.0202538         143.791
0.605                   -2.54719         177.745         -49.3135         78.2379         -49.3133         78.2386       -0.0204646         143.713
0.606                   -2.60303         177.112         -49.2129         76.1713         -49.2126         76.1728       -0.0206781         143.635
0.607                   -2.65953         176.478         -49.1149         74.1119         -49.1143         74.1142       -0.0208944         143.557
0.608                   -2.71671         175.844         -49.0192         72.0602         -49.0184         72.0632       -0.0211134         143.478
0.609                   -2.77456         175.209         -48.9259         70.0168         -48.9249         70.0204       -0.0213352         143.399
0.61                    -2.83308         174.574         -48.8348          67.982         -48.8337         67.9861       -0.0215599          143.32
0.611                   -2.89229         173.937          -48.746         65.9562         -48.7446         65.9608       -0.0217876         143.241
0.612                   -2.95218           173.3         -48.6592         63.9399         -48.6577         63.9448       -0.0220181         143.161
0.613                   -3.01275         172.662         -48.5745         61.9334         -48.5728         61.9386       -0.0222518         143.081
0.614                   -3.07401         172.024         -48.4916          59.937         -48.4898         59.9423       -0.0224885         143.002
0.615                   -3.13597         171.385         -48.4107         57.9509         -48.4087         57.9564       -0.0227283         142.921
0.616                   -3.19863         170.744         -48.3314         55.9754         -48.3293          55.981       -0.0229714         142.841
0.617                     -3.262         170.103         -48.2538         54.0107         -48.2516         54.0163       -0.0232177          142.76
0.618                   -3.32607         169.461         -48.1778          52.057         -48.1754         52.0626       -0.0234673          142.68
0.619                   -3.39086         168.818         -48.1032         50.1144         -48.1007           50.12       -0.0237203         142.598
0.62                    -3.45638         168.175         -48.0299          48.183         -48.0274         48.1885       -0.0239768         142.517
0.621                   -3.52263          167.53         -47.9579         46.2629         -47.9553         46.2683       -0.0242367         142.436
0.622                   -3.58962         166.884         -47.8871         44.3542         -47.8844         44.3594       -0.0245003         142.354
0.623                   -3.65735         166.237         -47.8174         42.4569         -47.8146         42.4619       -0.0247675         142.272
0.624                   -3.72584         165.588         -47.7486         40.5708         -47.7458         40.5756       -0.0250384         142.189
0.625                    -3.7951         164.939         -47.6807         38.6961         -47.6778         38.7006       -0.0253131         142.107
0.626                   -3.86513         164.289         -47.6135         36.8326         -47.6107         36.8369       -0.0255916         142.024
0.627                   -3.93596         163.637         -47.5471         34.9802         -47.5442         34.9842       -0.0258741         141.941
0.628                   -4.00758         162.983         -47.4813         33.1388         -47.4784         33.1425       -0.0261606         141.858
0.629                   -4.08002         162.329         -47.4159         31.3083         -47.4131         31.3117       -0.0264511         141.774
0.63                    -4.15328         161.673         -47.3511         29.4884         -47.3482         29.4916       -0.0267458          141.69
0.631                   -4.22738         161.015         -47.2865         27.6791         -47.2837         27.6819       -0.0270448         141.606
0.632                   -4.30234         160.356         -47.2223         25.8801         -47.2194         25.8826       -0.0273481         141.521
0.633                   -4.37817         159.696         -47.1582         24.0912         -47.1554         24.0934       -0.0276557         141.437
0.634                   -4.45489         159.034         -47.0943         22.3121         -47.0915          22.314       -0.0279679         141.352
0.635                   -4.53252          158.37         -47.0304         20.5426         -47.0276         20.5442       -0.0282846         141.266
0.636                   -4.61108         157.704         -46.9665         18.7824         -46.9637         18.7837        -0.028606         141.181
0.637                   -4.69059         157.036         -46.9025         17.0313         -46.8998         17.0323       -0.0289322         141.095
0.638                   -4.77107         156.367         -46.8383         15.2889         -46.8357         15.2896       -0.0292632         141.009
0.639                   -4.85254         155.695          -46.774          13.555         -46.7714         13.5555       -0.0295991         140.922
0.64                    -4.93504         155.022         -46.7093         11.8292         -46.7068         11.8294       -0.0299401         140.835
0.641                   -5.01858         154.347         -46.6444         10.1112         -46.6419         10.1113       -0.0302862         140.748
0.642                   -5.10319         153.669         -46.5791         8.40079         -46.5766         8.40058       -0.0306375         140.661
0.643                   -5.18891         152.989         -46.5133         6.69753          -46.511         6.69711       -0.0309941         140.573
0.644                   -5.27576         152.307         -46.4471          5.0011         -46.4448         5.00048       -0.0313562         140.485
0.645                   -5.36378         151.623         -46.3804         3.31118         -46.3782         3.31037       -0.0317238         140.397
0.646                   -5.45301         150.937         -46.3131         1.62741         -46.3109         1.62643        -0.032097         140.308
0.647                   -5.54347         150.248         -46.2452      -0.0505481         -46.2431      -0.0516863        -0.032476         140.219
0.648                   -5.63522         149.556         -46.1767        -1.72305         -46.1747        -1.72433       -0.0328609         140.129
0.649                   -5.72828         148.862         -46.1076        -3.39043         -46.1056        -3.39184       -0.0332518         140.039
0.65                    -5.82271         148.166         -46.0377        -5.05306         -46.0359        -5.05458       -0.0336487         139.949
0.651                   -5.91855         147.467         -45.9672        -6.71127         -45.9654        -6.71289       -0.0340518         139.859
0.652                   -6.01585         146.765         -45.8959        -8.36543         -45.8942        -8.36714       -0.0344613         139.768
0.653                   -6.11466         146.061         -45.8238        -10.0159         -45.8222        -10.0177       -0.0348772         139.677
0.654                   -6.21503         145.354          -45.751         -11.663         -45.7494        -11.6648       -0.0352998         139.585
0.655                   -6.31703         144.644         -45.6774         -13.307         -45.6759        -13.3089        -0.035729         139.493
0.656                   -6.42071         143.932         -45.6029        -14.9484         -45.6015        -14.9503       -0.0361651         139.401
0.657                   -6.52614         143.217         -45.5277        -16.5875         -45.5264        -16.5894       -0.0366082         139.308
0.658                   -6.63339         142.499         -45.4516        -18.2246         -45.4504        -18.2265       -0.0370584         139.215
0.659                   -6.74252         141.779         -45.3747          -19.86         -45.3735        -19.8619       -0.0375158         139.121
0.66                    -6.85361         141.056          -45.297         -21.494         -45.2959         -21.496       -0.0379807         139.027
0.661                   -6.96674          140.33         -45.2184        -23.1271         -45.2173         -23.129       -0.0384531         138.933
0.662                     -7.082         139.602          -45.139        -24.7594          -45.138        -24.7613       -0.0389333         138.838
0.663                   -7.19947         138.872         -45.0587        -26.3914         -45.0578        -26.3932       -0.0394214         138.743
0.664                   -7.31924         138.139         -44.9776        -28.0232         -44.9768         -28.025       -0.0399175         138.647
0.665                   -7.44142         137.404         -44.8957        -29.6553         -44.8949         -29.657       -0.0404218         138.551
0.666                   -7.56611         136.667          -44.813        -31.2878         -44.8123        -31.2895       -0.0409345         138.454
0.667                   -7.69341         135.928         -44.7295        -32.9212         -44.7288        -32.9228       -0.0414558         138.357
0.668                   -7.82344         135.188         -44.6453        -34.5555         -44.6446        -34.5571       -0.0419859          138.26
0.669                   -7.95632         134.446         -44.5602        -36.1911         -44.5596        -36.1926       -0.0425249         138.162
0.67                    -8.09217         133.703         -44.4744        -37.8283         -44.4739        -37.8297       -0.0430731         138.064
0.671                   -8.23114          132.96         -44.3879        -39.4673         -44.3874        -39.4686       -0.0436307         137.965
0.672                   -8.37336         132.216         -44.3007        -41.1082         -44.3002        -41.1095       -0.0441978         137.865
0.673                   -8.51898         131.472         -44.2127        -42.7514         -44.2123        -42.7525       -0.0447748         137.765
0.674                   -8.66815         130.729         -44.1242        -44.3969         -44.1238         -44.398       -0.0453617         137.665
0.675                   -8.82103         129.987          -44.035        -46.0451         -44.0346        -46.0461        -0.045959         137.564
0.676                    -8.9778         129.247         -43.9452         -47.696         -43.9449        -47.6969       -0.0465667         137.462
0.677                   -9.13864         128.509         -43.8549        -49.3498         -43.8546        -49.3507       -0.0471853          137.36
0.678                   -9.30372         127.774          -43.764        -51.0067         -43.7637        -51.0075       -0.0478148         137.258
0.679                   -9.47325         127.044         -43.6726        -52.6668         -43.6724        -52.6675       -0.0484557         137.155
0.68                    -9.64743          126.32         -43.5807        -54.3301         -43.5805        -54.3308       -0.0491082         137.051
0.681                   -9.82646         125.601         -43.4885        -55.9969         -43.4883        -55.9974       -0.0497726         136.947
0.682                   -10.0106         124.891         -43.3958        -57.6671         -43.3956        -57.6675       -0.0504491         136.842
0.683                      -10.2          124.19         -43.3028        -59.3407         -43.3026        -59.3411       -0.0511382         136.737
0.684                    -10.395         123.499         -43.2094         -61.018         -43.2093        -61.0183       -0.0518401         136.631
0.685                   -10.5957         122.822         -43.1158        -62.6988         -43.1156         -62.699       -0.0525552         136.524
0.686                   -10.8025         122.159         -43.0219        -64.3831         -43.0218        -64.3833       -0.0532838         136.417
0.687                   -11.0155         121.513         -42.9278         -66.071         -42.9277        -66.0711       -0.0540263         136.309
0.688                   -11.2351         120.887         -42.8335        -67.7623         -42.8334        -67.7625        -0.054783           136.2
0.689                   -11.4615         120.284         -42.7391        -69.4571          -42.739        -69.4572       -0.0555544         136.091
0.69                     -11.695         119.706         -42.6446        -71.1553         -42.6445        -71.1554       -0.0563409         135.981
0.691                   -11.9357         119.157           -42.55        -72.8567           -42.55        -72.8567       -0.0571428         135.871
0.692                    -12.184         118.641         -42.4554        -74.5613         -42.4554        -74.5613       -0.0579607          135.76
0.693                   -12.4401         118.164         -42.3608        -76.2688         -42.3608        -76.2688       -0.0587949         135.648
0.694                   -12.7041         117.728         -42.2663        -77.9793         -42.2663        -77.9792       -0.0596459         135.535
0.695                   -12.9763         117.341         -42.1718        -79.6924         -42.1718        -79.6923       -0.0605142         135.422
0.696                   -13.2568         117.007         -42.0774         -81.408         -42.0774         -81.408       -0.0614002         135.307
0.697                   -13.5457         116.734         -41.9831         -83.126         -41.9831        -83.1259       -0.0623046         135.193