! TOUCHSTONE file generated by CST MICROWAVE STUDIO
! Date and time: Fri Oct 30 07:49:47 2020
! Project name: Scenario_1_Circular_Tissue_out_of_Line.cst
! Parameters = {dy1=-241.954; L_HA=400; MT=2.54; Rad_Dielectric=30; Rad_Lower=7.3; Rad_Upper=30; a_HA=580; a_WG=246; b_HA=500; b_WG=121; c_HA=0; c_WG=187; d_feed=85; dx1=520; h_feed=15; h_lower=18; h_upper=40}
! Header version: 2018
! Port assignment regex: !\s*Touchstone port\s*([0-9]+)\s*=\s*(CST MWS port|CST DS port)\s*([0-9]+|Zmin|Zmax)\s*\(\"(.*)\"\)(\s*mode\s*([0-9]+))?.*
! Touchstone port assignment:
! Touchstone port 1 = CST MWS port 1 ("")
! Touchstone port 2 = CST MWS port 2 ("")
# GHz S DB R 50
0.5                    -0.141783        -122.255         -63.0431        -74.0113         -63.0424        -74.0941      -0.00725691         151.103
0.501                  -0.139137        -122.703         -63.2167          -75.78         -63.1545         -75.565      -0.00732262         151.038
0.502                  -0.136766        -123.153         -63.3903        -77.6187         -63.2667        -77.0807      -0.00738911         150.973
0.503                  -0.134677        -123.607         -63.5635        -79.5309         -63.3789        -78.6428      -0.00745636         150.907
0.504                  -0.132874        -124.063         -63.7357          -81.52         -63.4908        -80.2533       -0.0075244         150.842
0.505                  -0.131365        -124.522         -63.9062        -83.5893         -63.6021        -81.9139      -0.00759322         150.776
0.506                  -0.130156        -124.983         -64.0743        -85.7417         -63.7125        -83.6263      -0.00766284         150.711
0.507                  -0.129252        -125.448         -64.2391        -87.9803         -63.8216        -85.3924      -0.00773325         150.645
0.508                   -0.12866        -125.915         -64.3996        -90.3075         -63.9291        -87.2138      -0.00780447         150.579
0.509                  -0.128386        -126.385         -64.5548        -92.7253         -64.0344        -89.0921      -0.00787649         150.514
0.51                   -0.128436        -126.858         -64.7036        -95.2352         -64.1372        -91.0288      -0.00794933         150.448
0.511                  -0.128817        -127.334         -64.8447        -97.8379         -64.2369         -93.025      -0.00802299         150.382
0.512                  -0.129536        -127.813         -64.9767        -100.533          -64.333         -95.082      -0.00809749         150.316
0.513                  -0.130598        -128.294         -65.0983        -103.319         -64.4248        -97.2005      -0.00817281         150.249
0.514                   -0.13201        -128.778          -65.208        -106.195         -64.5118         -99.381      -0.00824898         150.183
0.515                   -0.13378        -129.266         -65.3043        -109.154         -64.5931        -101.624        -0.008326         150.117
0.516                  -0.135912        -129.755         -65.3859        -112.193         -64.6681        -103.928      -0.00840388          150.05
0.517                  -0.138415        -130.248         -65.4512        -115.305         -64.7361        -106.294      -0.00848262         149.984
0.518                  -0.141295        -130.744          -65.499        -118.481         -64.7963        -108.719      -0.00856223         149.917
0.519                  -0.144558        -131.242         -65.5281        -121.711          -64.848        -111.203      -0.00864272         149.851
0.52                   -0.148211        -131.743         -65.5377        -124.985         -64.8902        -113.742      -0.00872409         149.784
0.521                  -0.152261        -132.247          -65.527        -128.289         -64.9224        -116.333      -0.00880636         149.717
0.522                  -0.156715        -132.753         -65.4955        -131.613         -64.9438        -118.974      -0.00888953          149.65
0.523                  -0.161579        -133.262         -65.4431        -134.942         -64.9536        -121.658      -0.00897361         149.583
0.524                  -0.166861        -133.775           -65.37        -138.262         -64.9513        -124.382      -0.00905861         149.516
0.525                  -0.172567        -134.289         -65.2765        -141.563         -64.9364        -127.141      -0.00914453         149.449
0.526                  -0.178704        -134.807         -65.1634         -144.83         -64.9083        -129.927      -0.00923139         149.382
0.527                  -0.185278        -135.327         -65.0316        -148.054         -64.8668        -132.734      -0.00931919         149.315
0.528                  -0.192298         -135.85         -64.8821        -151.224         -64.8117        -135.557      -0.00940795         149.247
0.529                  -0.199768        -136.376         -64.7164        -154.331         -64.7427        -138.388      -0.00949766          149.18
0.53                   -0.207697        -136.904         -64.5357         -157.37           -64.66         -141.22      -0.00958835         149.112
0.531                  -0.216091        -137.435         -64.3415        -160.334         -64.5636        -144.046      -0.00968001         149.044
0.532                  -0.224957        -137.969         -64.1353         -163.22         -64.4538         -146.86      -0.00977267         148.977
0.533                  -0.234302        -138.505         -63.9186        -166.024         -64.3311        -149.655      -0.00986632         148.909
0.534                  -0.244132        -139.044         -63.6927        -168.746         -64.1958        -152.426      -0.00996098         148.841
0.535                  -0.254454        -139.585          -63.459        -171.385         -64.0486        -155.168       -0.0100567         148.773
0.536                  -0.265275        -140.129         -63.2187        -173.942           -63.89        -157.874       -0.0101534         148.704
0.537                  -0.276602        -140.676         -62.9731        -176.418         -63.7208        -160.543       -0.0102511         148.636
0.538                   -0.28844        -141.225         -62.7231        -178.815         -63.5418        -163.169       -0.0103499         148.568
0.539                  -0.300798        -141.776         -62.4697         178.864         -63.3535         -165.75       -0.0104498         148.499
0.54                    -0.31368         -142.33         -62.2139         176.616         -63.1569        -168.284       -0.0105507         148.431
0.541                  -0.327094        -142.887         -61.9562         174.439         -62.9527        -170.769       -0.0106527         148.362
0.542                  -0.341047        -143.445         -61.6975         172.328         -62.7417        -173.204       -0.0107558         148.293
0.543                  -0.355544        -144.007         -61.4383         170.281         -62.5245        -175.588       -0.0108601         148.224
0.544                  -0.370592         -144.57         -61.1791         168.294          -62.302        -177.922       -0.0109654         148.155
0.545                  -0.386197        -145.136         -60.9203         166.364         -62.0747         179.794       -0.0110719         148.086
0.546                  -0.402365        -145.705         -60.6624         164.487         -61.8434          177.56       -0.0111795         148.017
0.547                  -0.419103        -146.275         -60.4056          162.66         -61.6085         175.375       -0.0112882         147.948
0.548                  -0.436416        -146.848         -60.1502         160.879         -61.3707         173.238       -0.0113982         147.878
0.549                   -0.45431        -147.423         -59.8965         159.143         -61.1305         171.146       -0.0115093         147.809
0.55                   -0.472791            -148         -59.6445         157.448         -60.8883         169.099       -0.0116216         147.739
0.551                  -0.491866         -148.58         -59.3946          155.79         -60.6445         167.095       -0.0117351          147.67
0.552                  -0.511538        -149.161         -59.1467         154.169         -60.3996         165.132       -0.0118499           147.6
0.553                  -0.531815        -149.745          -58.901          152.58         -60.1539         163.209       -0.0119658          147.53
0.554                  -0.552702        -150.331         -58.6576         151.022         -59.9077         161.323       -0.0120831          147.46
0.555                  -0.574203        -150.918         -58.4166         149.492         -59.6612         159.472       -0.0122016          147.39
0.556                  -0.596324        -151.508         -58.1778         147.988         -59.4148         157.655       -0.0123213         147.319
0.557                  -0.619071          -152.1         -57.9415         146.509         -59.1686          155.87       -0.0124424         147.249
0.558                  -0.642448        -152.694         -57.7076         145.051         -58.9229         154.114       -0.0125648         147.178
0.559                   -0.66646        -153.289          -57.476         143.615         -58.6778         152.387       -0.0126885         147.108
0.56                   -0.691112        -153.886         -57.2469         142.197         -58.4334         150.686       -0.0128136         147.037
0.561                  -0.716408        -154.486         -57.0202         140.796           -58.19          149.01         -0.01294         146.966
0.562                  -0.742354        -155.086         -56.7958         139.411         -57.9475         147.357       -0.0130678         146.895
0.563                  -0.768954        -155.689         -56.5738          138.04         -57.7062         145.725       -0.0131969         146.824
0.564                  -0.796211        -156.294         -56.3541         136.683          -57.466         144.113       -0.0133275         146.753
0.565                   -0.82413          -156.9         -56.1367         135.337         -57.2272         142.519       -0.0134596         146.681
0.566                  -0.852715        -157.507         -55.9216         134.001         -56.9897         140.942        -0.013593          146.61
0.567                  -0.881971        -158.116         -55.7087         132.675         -56.7536         139.381        -0.013728         146.538
0.568                    -0.9119        -158.727         -55.4981         131.357         -56.5189         137.833       -0.0138644         146.466
0.569                  -0.942506         -159.34         -55.2896         130.046         -56.2857         136.299       -0.0140023         146.394
0.57                   -0.973793        -159.953         -55.0832         128.742          -56.054         134.776       -0.0141418         146.322
0.571                   -1.00576        -160.569          -54.879         127.443         -55.8239         133.263       -0.0142828          146.25
0.572                   -1.03842        -161.185         -54.6768         126.148         -55.5954          131.76       -0.0144253         146.178
0.573                   -1.07177        -161.803         -54.4766         124.857         -55.3684         130.265       -0.0145695         146.105
0.574                   -1.10582        -162.422         -54.2785         123.569         -55.1431         128.778       -0.0147152         146.033
0.575                   -1.14056        -163.043         -54.0823         122.284         -54.9194         127.296       -0.0148626          145.96
0.576                     -1.176        -163.665         -53.8881         120.999         -54.6974          125.82       -0.0150117         145.887
0.577                   -1.21214        -164.288         -53.6958         119.715          -54.477         124.348       -0.0151624         145.814
0.578                   -1.24898        -164.912         -53.5053         118.431         -54.2582          122.88       -0.0153148         145.741
0.579                   -1.28653        -165.537         -53.3168         117.147         -54.0411         121.414       -0.0154689         145.667
0.58                     -1.3248        -166.163           -53.13         115.862         -53.8258          119.95       -0.0156247         145.594
0.581                   -1.36377        -166.791          -52.945         114.574         -53.6121         118.487       -0.0157824          145.52
0.582                   -1.40345        -167.419         -52.7618         113.285         -53.4001         117.024       -0.0159418         145.447
0.583                   -1.44385        -168.049         -52.5804         111.992         -53.1898         115.561       -0.0161031         145.373
0.584                   -1.48497        -168.679         -52.4007         110.696         -52.9812         114.097       -0.0162661         145.299
0.585                   -1.52681         -169.31         -52.2227         109.397         -52.7744         112.631       -0.0164311         145.224
0.586                   -1.56937        -169.942         -52.0464         108.093         -52.5692         111.162        -0.016598          145.15
0.587                   -1.61264        -170.575         -51.8718         106.784         -52.3659         109.691       -0.0167668         145.075
0.588                   -1.65665        -171.209         -51.6989          105.47         -52.1643         108.216       -0.0169375         145.001
0.589                   -1.70137        -171.844         -51.5276         104.151         -51.9644         106.738       -0.0171102         144.926
0.59                    -1.74683        -172.479         -51.3579         102.825         -51.7664         105.254        -0.017285         144.851
0.591                   -1.79301        -173.115         -51.1899         101.493         -51.5702         103.766       -0.0174617         144.776
0.592                   -1.83992        -173.752         -51.0235         100.155         -51.3757         102.272       -0.0176406           144.7
0.593                   -1.88756         -174.39         -50.8587          98.809         -51.1832         100.772       -0.0178216         144.625
0.594                   -1.93593        -175.028         -50.6955         97.4558         -50.9924         99.2658       -0.0180046         144.549
0.595                   -1.98504        -175.666         -50.5339         96.0949         -50.8036         97.7528       -0.0181899         144.473
0.596                   -2.03488        -176.306         -50.3739         94.7259         -50.6167         96.2327       -0.0183774         144.397
0.597                   -2.08545        -176.946         -50.2155         93.3485         -50.4316         94.7051       -0.0185671         144.321
0.598                   -2.13676        -177.586         -50.0588         91.9625         -50.2486         93.1697       -0.0187591         144.244
0.599                    -2.1888        -178.227         -49.9036         90.5676         -50.0675         91.6262       -0.0189533         144.168
0.6                     -2.24159        -178.869           -49.75         89.1635         -49.8884         90.0743         -0.01915         144.091
0.601                   -2.29511        -179.511          -49.598         87.7501         -49.7114         88.5139        -0.019349         144.014
0.602                   -2.34937         179.847         -49.4476          86.327         -49.5364         86.9446       -0.0195504         143.937
0.603                   -2.40438         179.204         -49.2989         84.8941         -49.3635         85.3663       -0.0197543         143.859
0.604                   -2.46013         178.561         -49.1518         83.4511         -49.1928         83.7788       -0.0199606         143.782
0.605                   -2.51662         177.917         -49.0063          81.998         -49.0242         82.1819       -0.0201696         143.704
0.606                   -2.57386         177.273         -48.8625         80.5345         -48.8578         80.5756        -0.020381         143.626
0.607                   -2.63184         176.628         -48.7203         79.0605         -48.6936         78.9597       -0.0205952         143.548
0.608                   -2.69058         175.983         -48.5798         77.5758         -48.5317         77.3341       -0.0208119          143.47
0.609                   -2.75007         175.337          -48.441         76.0803         -48.3721         75.6989       -0.0210314         143.391
0.61                    -2.81031         174.691         -48.3039          74.574         -48.2148          74.054       -0.0212537         143.312
0.611                    -2.8713         174.045         -48.1685         73.0567         -48.0599         72.3995       -0.0214787         143.233
0.612                   -2.93306         173.398         -48.0348         71.5284         -47.9074         70.7352       -0.0217066         143.154
0.613                   -2.99557         172.751         -47.9028         69.9889         -47.7573         69.0614       -0.0219373         143.075
0.614                   -3.05885         172.104         -47.7727         68.4384         -47.6097         67.3781        -0.022171         142.995
0.615                   -3.12289         171.456         -47.6442         66.8767         -47.4646         65.6853       -0.0224077         142.915
0.616                    -3.1877         170.808         -47.5176         65.3038          -47.322         63.9834       -0.0226475         142.835
0.617                   -3.25328         170.159         -47.3928         63.7197         -47.1819         62.2723       -0.0228903         142.755
0.618                   -3.31965          169.51         -47.2697         62.1245         -47.0445         60.5523       -0.0231363         142.675
0.619                   -3.38679          168.86         -47.1486         60.5183         -46.9097         58.8236       -0.0233855         142.594
0.62                    -3.45471          168.21         -47.0292          58.901         -46.7775         57.0865        -0.023638         142.513
0.621                   -3.52343          167.56         -46.9117         57.2728         -46.6479         55.3412       -0.0238937         142.432
0.622                   -3.59294         166.909         -46.7961         55.6337          -46.521         53.5879       -0.0241529          142.35
0.623                   -3.66325         166.258         -46.6824         53.9839         -46.3968         51.8269       -0.0244155         142.269
0.624                   -3.73436         165.606         -46.5706         52.3234         -46.2753         50.0587       -0.0246816         142.187
0.625                   -3.80629         164.954         -46.4607         50.6525         -46.1566         48.2835       -0.0249512         142.105
0.626                   -3.87904         164.301         -46.3527         48.9713         -46.0405         46.5016       -0.0252245         142.022
0.627                   -3.95262         163.647         -46.2466           47.28         -45.9272         44.7134       -0.0255014         141.939
0.628                   -4.02702         162.993         -46.1424         45.5787         -45.8165         42.9193       -0.0257822         141.857
0.629                   -4.10228         162.338         -46.0402         43.8677         -45.7086         41.1197       -0.0260667         141.773
0.63                    -4.17838         161.683           -45.94         42.1472         -45.6034         39.3149       -0.0263552          141.69
0.631                   -4.25534         161.027         -45.8416         40.4174         -45.5009         37.5055       -0.0266476         141.606
0.632                   -4.33318          160.37         -45.7452         38.6786         -45.4011         35.6917        -0.026944         141.522
0.633                    -4.4119         159.713         -45.6508          36.931         -45.3039          33.874       -0.0272446         141.438
0.634                   -4.49151         159.054         -45.5582         35.1749         -45.2093         32.0528       -0.0275494         141.353
0.635                   -4.57203         158.395         -45.4676         33.4107         -45.1174         30.2285       -0.0278585         141.269
0.636                   -4.65347         157.735         -45.3789         31.6385          -45.028         28.4016       -0.0281719         141.183
0.637                   -4.73584         157.075         -45.2921         29.8588         -44.9411         26.5724       -0.0284898         141.098
0.638                   -4.81916         156.413         -45.2071         28.0717         -44.8567         24.7414       -0.0288122         141.012
0.639                   -4.90345          155.75         -45.1241         26.2777         -44.7748         22.9089       -0.0291392         140.926
0.64                    -4.98872         155.086         -45.0428          24.477         -44.6953         21.0754       -0.0294709          140.84
0.641                   -5.07499         154.422         -44.9634           22.67         -44.6181         19.2412       -0.0298074         140.754
0.642                   -5.16228         153.756         -44.8858         20.8571         -44.5432         17.4067       -0.0301488         140.667
0.643                   -5.25061         153.089         -44.8099         19.0385         -44.4706         15.5722       -0.0304953         140.579
0.644                   -5.34001         152.421         -44.7358         17.2146         -44.4001         13.7382       -0.0308468         140.492
0.645                   -5.43048         151.751         -44.6633         15.3858         -44.3317         11.9048       -0.0312035         140.404
0.646                   -5.52207          151.08         -44.5925         13.5524         -44.2654         10.0726       -0.0315655         140.316
0.647                    -5.6148         150.408         -44.5233         11.7148         -44.2011         8.24163       -0.0319329         140.227
0.648                   -5.70868         149.735         -44.4557         9.87322         -44.1386         6.41233       -0.0323058         140.139
0.649                   -5.80376          149.06         -44.3896         8.02808          -44.078         4.58493       -0.0326843         140.049
0.65                    -5.90006         148.383          -44.325         6.17973         -44.0191         2.75968       -0.0330686          139.96
0.651                   -5.99762         147.705         -44.2619         4.32847         -43.9619        0.936796       -0.0334587          139.87
0.652                   -6.09647         147.026         -44.2001         2.47466         -43.9063       -0.883496       -0.0338549          139.78
0.653                   -6.19665         146.345         -44.1396        0.618603         -43.8522        -2.70101       -0.0342571         139.689
0.654                    -6.2982         145.662         -44.0804        -1.23937         -43.7995        -4.51556       -0.0346656         139.598
0.655                   -6.40115         144.977         -44.0224        -3.09896         -43.7482          -6.327       -0.0350804         139.507
0.656                   -6.50556         144.291         -43.9655        -4.95985         -43.6981        -8.13519       -0.0355018         139.415
0.657                   -6.61147         143.603         -43.9098        -6.82175         -43.6493        -9.93999       -0.0359298         139.323
0.658                   -6.71893         142.913         -43.8551        -8.68437         -43.6015        -11.7413       -0.0363645         139.231
0.659                   -6.82799         142.221         -43.8013        -10.5474         -43.5548        -13.5391       -0.0368062         139.138
0.66                    -6.93871         141.527         -43.7484        -12.4106          -43.509        -15.3332        -0.037255         139.045
0.661                   -7.05114         140.831         -43.6964        -14.2738         -43.4641        -17.1236        -0.037711         138.951
0.662                   -7.16536         140.134         -43.6451        -16.1366           -43.42        -18.9102       -0.0381745         138.857
0.663                   -7.28142         139.434         -43.5945        -17.9988         -43.3765        -20.6931       -0.0386454         138.763
0.664                    -7.3994         138.733         -43.5446        -19.8601         -43.3337        -22.4721       -0.0391241         138.668
0.665                   -7.51937         138.029         -43.4952        -21.7205         -43.2914        -24.2474       -0.0396107         138.572
0.666                   -7.64141         137.324         -43.4463        -23.5795         -43.2495        -26.0189       -0.0401053         138.477
0.667                   -7.76561         136.617         -43.3979        -25.4371         -43.2081        -27.7866       -0.0406083          138.38
0.668                   -7.89205         135.908         -43.3498        -27.2931         -43.1669        -29.5505       -0.0411196         138.284
0.669                   -8.02084         135.197          -43.302        -29.1471          -43.126        -31.3108       -0.0416396         138.187
0.67                    -8.15207         134.485         -43.2544        -30.9992         -43.0852        -33.0674       -0.0421684         138.089
0.671                   -8.28584         133.771          -43.207        -32.8491         -43.0446        -34.8204       -0.0427062         137.991
0.672                   -8.42228         133.055         -43.1596        -34.6966         -43.0039        -36.5698       -0.0432533         137.893
0.673                   -8.56151         132.339         -43.1123        -36.5416         -42.9632        -38.3157       -0.0438098         137.794
0.674                   -8.70365         131.621          -43.065        -38.3839         -42.9223        -40.0583        -0.044376         137.694
0.675                   -8.84884         130.902         -43.0176        -40.2235         -42.8813        -41.7975       -0.0449522         137.594
0.676                   -8.99723         130.183           -42.97        -42.0602           -42.84        -43.5335       -0.0455384         137.494
0.677                   -9.14897         129.463         -42.9221        -43.8938         -42.7984        -45.2663        -0.046135         137.393
0.678                   -9.30423         128.744          -42.874        -45.7243         -42.7564         -46.996       -0.0467423         137.291
0.679                   -9.46318         128.025         -42.8256        -47.5515         -42.7139        -48.7228       -0.0473604         137.189
0.68                    -9.62601         127.307         -42.7767        -49.3755          -42.671        -50.4466       -0.0479897         137.087
0.681                   -9.79292          126.59         -42.7274        -51.1959         -42.6275        -52.1677       -0.0486305         136.984
0.682                   -9.96411         125.875         -42.6776        -53.0129         -42.5834        -53.8861       -0.0492829          136.88
0.683                   -10.1398         125.164         -42.6272        -54.8262         -42.5387        -55.6018       -0.0499473         136.776
0.684                   -10.3203         124.456         -42.5763        -56.6359         -42.4932        -57.3151       -0.0506239         136.671
0.685                   -10.5058         123.752         -42.5246        -58.4419          -42.447        -59.0259       -0.0513132         136.565
0.686                   -10.6965         123.055         -42.4723         -60.244         -42.3999        -60.7344       -0.0520154         136.459
0.687                   -10.8928         122.364         -42.4192        -62.0423          -42.352        -62.4407       -0.0527308         136.353
0.688                    -11.095         121.682         -42.3653        -63.8367         -42.3032        -64.1449       -0.0534598         136.245
0.689                   -11.3033          121.01         -42.3105        -65.6272         -42.2535         -65.847       -0.0542026         136.138
0.69                    -11.5182         120.349         -42.2549        -67.4136         -42.2027        -67.5472       -0.0549598         136.029
0.691                     -11.74         119.703         -42.1984        -69.1961         -42.1509        -69.2455       -0.0557316          135.92
0.692                    -11.969         119.073         -42.1409        -70.9744         -42.0981         -70.942       -0.0565184          135.81
0.693                   -12.2057         118.463         -42.0824        -72.7487         -42.0442        -72.6368       -0.0573207           135.7
0.694                   -12.4505         117.875         -42.0229        -74.5189         -41.9891          -74.33       -0.0581387         135.588
0.695                   -12.7037         117.314         -41.9623         -76.285         -41.9329        -76.0217        -0.058973         135.477
0.696                    -12.966         116.782         -41.9007        -78.0469         -41.8754        -77.7119        -0.059824         135.364
0.697                   -13.2376         116.286         -41.8379        -79.8047         -41.8168        -79.4007       -0.0606921         135.251